# Forces     
# CofR       : (0.000000e+00 0.000000e+00 0.000000e+00)
# Time       forces(pressure viscous porous) moment(pressure viscous porous)
1.000000e-03	((1.000395e+00 -1.602780e+00 -2.014050e-04) (3.535925e-03 -1.243023e-05 1.643597e-06) (0.000000e+00 0.000000e+00 0.000000e+00)) ((-5.010399e-05 8.798772e-05 -4.171817e-01) (2.840719e-07 -2.553314e-06 1.035640e-04) (0.000000e+00 0.000000e+00 0.000000e+00))
2.000000e-03	((2.716704e+00 -4.338006e+00 -5.621016e-04) (3.575977e-03 4.883639e-04 4.238688e-06) (0.000000e+00 0.000000e+00 0.000000e+00)) ((4.852728e-04 5.115223e-04 -1.089557e+00) (2.978417e-07 -3.175979e-06 3.044646e-04) (0.000000e+00 0.000000e+00 0.000000e+00))
3.000000e-03	((3.831982e+00 -6.356545e+00 -4.898366e-04) (4.139852e-03 7.854929e-04 7.060524e-06) (0.000000e+00 0.000000e+00 0.000000e+00)) ((1.121301e-03 5.962936e-04 -1.520382e+00) (1.170202e-07 -4.875527e-06 4.721129e-04) (0.000000e+00 0.000000e+00 0.000000e+00))
4.000000e-03	((4.111654e+00 -7.221738e+00 -5.496402e-04) (5.183767e-03 1.145113e-03 1.047439e-05) (0.000000e+00 0.000000e+00 0.000000e+00)) ((2.448919e-03 1.463371e-03 -1.626791e+00) (-5.721354e-08 -8.050967e-06 6.938128e-04) (0.000000e+00 0.000000e+00 0.000000e+00))
5.000000e-03	((4.204537e+00 -8.013740e+00 -5.148306e-04) (6.076063e-03 1.345238e-03 1.515034e-05) (0.000000e+00 0.000000e+00 0.000000e+00)) ((2.085697e-03 7.719011e-04 -1.684195e+00) (4.649759e-07 -7.953250e-06 8.288578e-04) (0.000000e+00 0.000000e+00 0.000000e+00))
6.000000e-03	((4.468016e+00 -9.048981e+00 -7.830349e-04) (6.859556e-03 1.512086e-03 2.089340e-05) (0.000000e+00 0.000000e+00 0.000000e+00)) ((2.838904e-03 2.592395e-04 -1.811762e+00) (-4.991324e-07 -7.928868e-06 9.490148e-04) (0.000000e+00 0.000000e+00 0.000000e+00))
7.000000e-03	((5.108727e+00 -1.070929e+01 -1.965189e-03) (7.584973e-03 1.608801e-03 2.525571e-05) (0.000000e+00 0.000000e+00 0.000000e+00)) ((-4.033830e-03 -2.142037e-03 -2.091320e+00) (-3.151032e-06 -8.174920e-06 1.040122e-03) (0.000000e+00 0.000000e+00 0.000000e+00))
8.000000e-03	((6.160784e+00 -1.290902e+01 -1.826150e-03) (8.335433e-03 1.868917e-03 2.851373e-05) (0.000000e+00 0.000000e+00 0.000000e+00)) ((-2.049226e-04 -1.507990e-03 -2.524467e+00) (-2.877629e-06 -1.020664e-05 1.183906e-03) (0.000000e+00 0.000000e+00 0.000000e+00))
9.000000e-03	((7.528583e+00 -1.559152e+01 -1.311580e-03) (9.164318e-03 1.964518e-03 3.432225e-05) (0.000000e+00 0.000000e+00 0.000000e+00)) ((6.959014e-05 -1.858505e-03 -3.071194e+00) (-4.664587e-06 -1.210036e-05 1.292539e-03) (0.000000e+00 0.000000e+00 0.000000e+00))
1.000000e-02	((8.961515e+00 -1.835978e+01 -9.291400e-04) (1.005443e-02 2.171859e-03 3.797284e-05) (0.000000e+00 0.000000e+00 0.000000e+00)) ((9.816311e-03 1.360810e-03 -3.638644e+00) (-3.438119e-06 -1.404337e-05 1.430254e-03) (0.000000e+00 0.000000e+00 0.000000e+00))
1.100000e-02	((1.037128e+01 -2.133211e+01 -7.158231e-04) (1.094410e-02 2.308969e-03 4.621874e-05) (0.000000e+00 0.000000e+00 0.000000e+00)) ((9.411950e-03 2.253301e-03 -4.215998e+00) (-2.319812e-06 -1.499966e-05 1.546966e-03) (0.000000e+00 0.000000e+00 0.000000e+00))
1.200000e-02	((1.180630e+01 -2.464195e+01 -1.402755e-03) (1.189253e-02 2.510783e-03 5.212669e-05) (0.000000e+00 0.000000e+00 0.000000e+00)) ((5.719460e-03 2.487026e-03 -4.821395e+00) (-2.491432e-06 -1.538854e-05 1.687119e-03) (0.000000e+00 0.000000e+00 0.000000e+00))
1.300000e-02	((1.316928e+01 -2.797141e+01 -2.045188e-03) (1.278613e-02 2.661811e-03 5.584096e-05) (0.000000e+00 0.000000e+00 0.000000e+00)) ((-1.897196e-02 -5.477599e-03 -5.405274e+00) (-2.078093e-06 -1.734571e-05 1.810140e-03) (0.000000e+00 0.000000e+00 0.000000e+00))
1.400000e-02	((1.452133e+01 -3.129500e+01 -4.226725e-04) (1.369101e-02 2.848617e-03 6.147235e-05) (0.000000e+00 0.000000e+00 0.000000e+00)) ((-1.833471e-02 -7.744709e-03 -5.977519e+00) (-1.695831e-06 -2.205325e-05 1.945790e-03) (0.000000e+00 0.000000e+00 0.000000e+00))
1.500000e-02	((1.601386e+01 -3.472234e+01 2.311264e-03) (1.455466e-02 3.011671e-03 6.912403e-05) (0.000000e+00 0.000000e+00 0.000000e+00)) ((-8.128120e-03 -6.413733e-03 -6.589723e+00) (-5.224481e-08 -2.405016e-05 2.071591e-03) (0.000000e+00 0.000000e+00 0.000000e+00))
1.600000e-02	((1.786050e+01 -3.872214e+01 3.660227e-03) (1.548052e-02 3.218672e-03 8.169071e-05) (0.000000e+00 0.000000e+00 0.000000e+00)) ((-3.578935e-03 -2.807042e-03 -7.331097e+00) (-1.616448e-07 -2.559438e-05 2.211793e-03) (0.000000e+00 0.000000e+00 0.000000e+00))
1.700000e-02	((2.011660e+01 -4.344931e+01 4.983395e-03) (1.645267e-02 3.402581e-03 9.034671e-05) (0.000000e+00 0.000000e+00 0.000000e+00)) ((5.129013e-03 3.600274e-03 -8.225341e+00) (-6.588019e-07 -2.778395e-05 2.349238e-03) (0.000000e+00 0.000000e+00 0.000000e+00))
1.800000e-02	((2.268926e+01 -4.893821e+01 2.535560e-03) (1.753513e-02 3.614921e-03 9.741800e-05) (0.000000e+00 0.000000e+00 0.000000e+00)) ((1.253469e-02 1.296138e-02 -9.255642e+00) (-9.758187e-07 -3.030169e-05 2.501326e-03) (0.000000e+00 0.000000e+00 0.000000e+00))
1.900000e-02	((2.546009e+01 -5.498958e+01 -1.043547e-03) (1.866902e-02 3.793830e-03 9.560639e-05) (0.000000e+00 0.000000e+00 0.000000e+00)) ((2.521806e-02 2.272361e-02 -1.037301e+01) (-2.291341e-06 -3.007269e-05 2.652225e-03) (0.000000e+00 0.000000e+00 0.000000e+00))
2.000000e-02	((2.827514e+01 -6.133500e+01 -3.300126e-03) (1.986046e-02 4.030174e-03 9.301633e-05) (0.000000e+00 0.000000e+00 0.000000e+00)) ((4.006546e-02 3.008785e-02 -1.151935e+01) (-2.688341e-06 -2.846336e-05 2.819737e-03) (0.000000e+00 0.000000e+00 0.000000e+00))
2.100000e-02	((3.103780e+01 -6.767957e+01 -3.687579e-03) (2.105167e-02 4.222861e-03 8.621111e-05) (0.000000e+00 0.000000e+00 0.000000e+00)) ((4.695444e-02 3.382045e-02 -1.264889e+01) (-1.012488e-06 -2.359151e-05 2.982160e-03) (0.000000e+00 0.000000e+00 0.000000e+00))
2.200000e-02	((3.380474e+01 -7.409422e+01 -3.167796e-03) (2.225030e-02 4.507787e-03 8.159661e-05) (0.000000e+00 0.000000e+00 0.000000e+00)) ((4.095536e-02 2.988729e-02 -1.378999e+01) (-2.067572e-07 -2.019222e-05 3.163442e-03) (0.000000e+00 0.000000e+00 0.000000e+00))
2.300000e-02	((3.673244e+01 -8.089266e+01 -2.260854e-03) (2.343399e-02 4.719172e-03 7.488505e-05) (0.000000e+00 0.000000e+00 0.000000e+00)) ((5.374026e-02 3.351715e-02 -1.500328e+01) (2.215134e-06 -1.854420e-05 3.331298e-03) (0.000000e+00 0.000000e+00 0.000000e+00))
2.400000e-02	((3.990581e+01 -8.829150e+01 -1.868233e-03) (2.461425e-02 5.045601e-03 7.117239e-05) (0.000000e+00 0.000000e+00 0.000000e+00)) ((6.170212e-02 3.369875e-02 -1.632440e+01) (5.585352e-06 -1.862220e-05 3.518921e-03) (0.000000e+00 0.000000e+00 0.000000e+00))
2.500000e-02	((4.338173e+01 -9.634291e+01 -4.047131e-03) (2.579739e-02 5.268423e-03 6.265787e-05) (0.000000e+00 0.000000e+00 0.000000e+00)) ((6.987032e-02 3.869089e-02 -1.776774e+01) (6.721721e-06 -1.902247e-05 3.687002e-03) (0.000000e+00 0.000000e+00 0.000000e+00))
2.600000e-02	((4.725052e+01 -1.052792e+02 -6.932514e-03) (2.698410e-02 5.600703e-03 5.785913e-05) (0.000000e+00 0.000000e+00 0.000000e+00)) ((8.667099e-02 4.475573e-02 -1.937987e+01) (9.006963e-06 -1.511225e-05 3.875265e-03) (0.000000e+00 0.000000e+00 0.000000e+00))
2.700000e-02	((5.135347e+01 -1.148465e+02 -1.018188e-02) (2.818733e-02 5.815357e-03 4.747340e-05) (0.000000e+00 0.000000e+00 0.000000e+00)) ((1.328941e-01 6.356842e-02 -2.108927e+01) (9.365532e-06 -1.276278e-05 4.044824e-03) (0.000000e+00 0.000000e+00 0.000000e+00))
2.800000e-02	((5.566856e+01 -1.250655e+02 -1.445745e-02) (2.940081e-02 6.113280e-03 3.564495e-05) (0.000000e+00 0.000000e+00 0.000000e+00)) ((1.766611e-01 7.782986e-02 -2.290468e+01) (1.063703e-05 -7.254664e-06 4.233115e-03) (0.000000e+00 0.000000e+00 0.000000e+00))
2.900000e-02	((6.006816e+01 -1.356214e+02 -1.540941e-02) (3.063332e-02 6.308373e-03 1.978558e-05) (0.000000e+00 0.000000e+00 0.000000e+00)) ((2.298828e-01 9.388342e-02 -2.476572e+01) (1.165078e-05 -6.401502e-06 4.406530e-03) (0.000000e+00 0.000000e+00 0.000000e+00))
3.000000e-02	((6.447793e+01 -1.462882e+02 -1.450272e-02) (3.187164e-02 6.579306e-03 7.895757e-06) (0.000000e+00 0.000000e+00 0.000000e+00)) ((2.589575e-01 9.912651e-02 -2.664326e+01) (1.324314e-05 -2.281531e-06 4.597457e-03) (0.000000e+00 0.000000e+00 0.000000e+00))
3.100000e-02	((6.897549e+01 -1.572960e+02 -1.276215e-02) (3.312071e-02 6.779324e-03 -6.751767e-06) (0.000000e+00 0.000000e+00 0.000000e+00)) ((2.908047e-01 1.104976e-01 -2.857625e+01) (1.679692e-05 -1.434152e-07 4.777085e-03) (0.000000e+00 0.000000e+00 0.000000e+00))
3.200000e-02	((7.358996e+01 -1.685851e+02 -1.321111e-02) (3.435845e-02 7.052564e-03 -1.944743e-05) (0.000000e+00 0.000000e+00 0.000000e+00)) ((3.350845e-01 1.229663e-01 -3.057178e+01) (1.819389e-05 5.846949e-06 4.970330e-03) (0.000000e+00 0.000000e+00 0.000000e+00))
3.300000e-02	((7.835637e+01 -1.802656e+02 -1.058534e-02) (3.558640e-02 7.266055e-03 -3.270066e-05) (0.000000e+00 0.000000e+00 0.000000e+00)) ((3.939068e-01 1.396803e-01 -3.264483e+01) (2.025171e-05 1.005106e-05 5.152338e-03) (0.000000e+00 0.000000e+00 0.000000e+00))
3.400000e-02	((8.327358e+01 -1.922314e+02 -1.175114e-02) (3.679915e-02 7.542784e-03 -4.371722e-05) (0.000000e+00 0.000000e+00 0.000000e+00)) ((4.439286e-01 1.595285e-01 -3.478906e+01) (2.365810e-05 1.600478e-05 5.345515e-03) (0.000000e+00 0.000000e+00 0.000000e+00))
3.500000e-02	((8.837082e+01 -2.046802e+02 -8.440854e-03) (3.800287e-02 7.766629e-03 -5.532945e-05) (0.000000e+00 0.000000e+00 0.000000e+00)) ((4.644810e-01 1.598869e-01 -3.701874e+01) (2.587973e-05 2.042802e-05 5.526682e-03) (0.000000e+00 0.000000e+00 0.000000e+00))
3.600000e-02	((9.369904e+01 -2.177179e+02 -5.524155e-03) (3.919513e-02 8.030866e-03 -6.261968e-05) (0.000000e+00 0.000000e+00 0.000000e+00)) ((4.551516e-01 1.515187e-01 -3.935988e+01) (2.949020e-05 2.512276e-05 5.715205e-03) (0.000000e+00 0.000000e+00 0.000000e+00))
3.700000e-02	((9.916054e+01 -2.311866e+02 -3.532764e-03) (4.037325e-02 8.264314e-03 -6.789250e-05) (0.000000e+00 0.000000e+00 0.000000e+00)) ((4.547044e-01 1.522036e-01 -4.176990e+01) (3.083782e-05 2.708930e-05 5.897000e-03) (0.000000e+00 0.000000e+00 0.000000e+00))
3.800000e-02	((1.047660e+02 -2.451343e+02 -2.060991e-03) (4.153663e-02 8.515306e-03 -7.184006e-05) (0.000000e+00 0.000000e+00 0.000000e+00)) ((4.404112e-01 1.585267e-01 -4.425807e+01) (3.069714e-05 3.089561e-05 6.080479e-03) (0.000000e+00 0.000000e+00 0.000000e+00))
3.900000e-02	((1.105216e+02 -2.595141e+02 2.962275e-04) (4.269387e-02 8.740710e-03 -7.389633e-05) (0.000000e+00 0.000000e+00 0.000000e+00)) ((4.416700e-01 1.721817e-01 -4.682578e+01) (3.016398e-05 3.058536e-05 6.259354e-03) (0.000000e+00 0.000000e+00 0.000000e+00))
4.000000e-02	((1.163631e+02 -2.741283e+02 -4.283932e-04) (4.383299e-02 8.985627e-03 -7.031270e-05) (0.000000e+00 0.000000e+00 0.000000e+00)) ((4.357613e-01 1.825073e-01 -4.943811e+01) (2.470951e-05 3.083793e-05 6.440549e-03) (0.000000e+00 0.000000e+00 0.000000e+00))
4.100000e-02	((1.222144e+02 -2.888405e+02 -3.258584e-03) (4.496134e-02 9.202024e-03 -7.052899e-05) (0.000000e+00 0.000000e+00 0.000000e+00)) ((4.394818e-01 1.947813e-01 -5.206305e+01) (2.222669e-05 3.253657e-05 6.617865e-03) (0.000000e+00 0.000000e+00 0.000000e+00))
4.200000e-02	((1.280494e+02 -3.036040e+02 -5.136552e-03) (4.606033e-02 9.436683e-03 -6.745015e-05) (0.000000e+00 0.000000e+00 0.000000e+00)) ((4.336399e-01 1.936732e-01 -5.469233e+01) (1.845774e-05 3.620942e-05 6.796095e-03) (0.000000e+00 0.000000e+00 0.000000e+00))
4.300000e-02	((1.338367e+02 -3.184041e+02 -4.688154e-03) (4.714194e-02 9.655393e-03 -6.613243e-05) (0.000000e+00 0.000000e+00 0.000000e+00)) ((4.566205e-01 2.009905e-01 -5.730990e+01) (1.404834e-05 3.870020e-05 6.971213e-03) (0.000000e+00 0.000000e+00 0.000000e+00))
4.400000e-02	((1.397047e+02 -3.334655e+02 -4.000414e-03) (4.820511e-02 9.877532e-03 -5.839367e-05) (0.000000e+00 0.000000e+00 0.000000e+00)) ((4.757281e-01 2.046509e-01 -5.997251e+01) (9.645658e-06 4.099946e-05 7.145682e-03) (0.000000e+00 0.000000e+00 0.000000e+00))
4.500000e-02	((1.455856e+02 -3.486543e+02 -6.598167e-03) (4.925600e-02 1.007857e-02 -5.984492e-05) (0.000000e+00 0.000000e+00 0.000000e+00)) ((4.733390e-01 2.111578e-01 -6.265261e+01) (7.731367e-06 4.404354e-05 7.316424e-03) (0.000000e+00 0.000000e+00 0.000000e+00))
4.600000e-02	((1.514991e+02 -3.640391e+02 -9.425904e-03) (5.028203e-02 1.027544e-02 -5.410339e-05) (0.000000e+00 0.000000e+00 0.000000e+00)) ((4.568338e-01 2.167475e-01 -6.536232e+01) (3.604838e-06 4.546181e-05 7.484217e-03) (0.000000e+00 0.000000e+00 0.000000e+00))
4.700000e-02	((1.574410e+02 -3.795138e+02 -1.123111e-02) (5.129138e-02 1.045909e-02 -5.175338e-05) (0.000000e+00 0.000000e+00 0.000000e+00)) ((4.275179e-01 2.203452e-01 -6.809266e+01) (9.064204e-07 4.612164e-05 7.648348e-03) (0.000000e+00 0.000000e+00 0.000000e+00))
4.800000e-02	((1.634153e+02 -3.951114e+02 -1.525661e-02) (5.227613e-02 1.063556e-02 -4.473146e-05) (0.000000e+00 0.000000e+00 0.000000e+00)) ((3.762473e-01 2.139368e-01 -7.085255e+01) (-4.434547e-06 4.663987e-05 7.809310e-03) (0.000000e+00 0.000000e+00 0.000000e+00))
4.900000e-02	((1.693792e+02 -4.106646e+02 -2.128101e-02) (5.323996e-02 1.080462e-02 -4.519965e-05) (0.000000e+00 0.000000e+00 0.000000e+00)) ((3.438292e-01 2.134471e-01 -7.361735e+01) (-4.257394e-06 4.900119e-05 7.966679e-03) (0.000000e+00 0.000000e+00 0.000000e+00))
5.000000e-02	((1.753950e+02 -4.263632e+02 -2.416181e-02) (5.417487e-02 1.097476e-02 -3.821777e-05) (0.000000e+00 0.000000e+00 0.000000e+00)) ((3.586369e-01 2.236815e-01 -7.641888e+01) (-7.857562e-06 5.002242e-05 8.120527e-03) (0.000000e+00 0.000000e+00 0.000000e+00))
5.100000e-02	((1.814042e+02 -4.419620e+02 -2.603243e-02) (5.508328e-02 1.114645e-02 -3.506110e-05) (0.000000e+00 0.000000e+00 0.000000e+00)) ((3.990195e-01 2.392725e-01 -7.922427e+01) (-6.745097e-06 5.042319e-05 8.271959e-03) (0.000000e+00 0.000000e+00 0.000000e+00))
5.200000e-02	((1.872916e+02 -4.572769e+02 -3.179163e-02) (5.597194e-02 1.131445e-02 -2.765862e-05) (0.000000e+00 0.000000e+00 0.000000e+00)) ((4.030603e-01 2.341256e-01 -8.198535e+01) (-7.912327e-06 4.899863e-05 8.417703e-03) (0.000000e+00 0.000000e+00 0.000000e+00))
5.300000e-02	((1.930959e+02 -4.723255e+02 -3.535004e-02) (5.683662e-02 1.148614e-02 -2.183651e-05) (0.000000e+00 0.000000e+00 0.000000e+00)) ((3.989137e-01 2.263034e-01 -8.471410e+01) (-6.507180e-06 4.761089e-05 8.562060e-03) (0.000000e+00 0.000000e+00 0.000000e+00))
5.400000e-02	((1.989208e+02 -4.873857e+02 -3.668013e-02) (5.767655e-02 1.165555e-02 -1.049461e-05) (0.000000e+00 0.000000e+00 0.000000e+00)) ((4.009466e-01 2.211445e-01 -8.745736e+01) (-8.719978e-06 4.472853e-05 8.702244e-03) (0.000000e+00 0.000000e+00 0.000000e+00))
5.500000e-02	((2.047627e+02 -5.024523e+02 -3.671971e-02) (5.849832e-02 1.182170e-02 -1.235174e-06) (0.000000e+00 0.000000e+00 0.000000e+00)) ((3.814094e-01 2.139739e-01 -9.021493e+01) (-9.631031e-06 4.201938e-05 8.837980e-03) (0.000000e+00 0.000000e+00 0.000000e+00))
5.600000e-02	((2.105428e+02 -5.173608e+02 -3.625815e-02) (5.929311e-02 1.198297e-02 1.098171e-05) (0.000000e+00 0.000000e+00 0.000000e+00)) ((3.725822e-01 2.056093e-01 -9.294754e+01) (-1.077734e-05 3.876009e-05 8.970859e-03) (0.000000e+00 0.000000e+00 0.000000e+00))
5.700000e-02	((2.162972e+02 -5.321174e+02 -3.803310e-02) (6.007482e-02 1.213657e-02 1.760771e-05) (0.000000e+00 0.000000e+00 0.000000e+00)) ((3.678171e-01 2.000210e-01 -9.566750e+01) (-9.366269e-06 3.780100e-05 9.100088e-03) (0.000000e+00 0.000000e+00 0.000000e+00))
5.800000e-02	((2.220047e+02 -5.466916e+02 -3.791514e-02) (6.083754e-02 1.229263e-02 2.911404e-05) (0.000000e+00 0.000000e+00 0.000000e+00)) ((3.561386e-01 1.904124e-01 -9.836301e+01) (-9.598351e-06 3.571248e-05 9.227895e-03) (0.000000e+00 0.000000e+00 0.000000e+00))
5.900000e-02	((2.277822e+02 -5.613142e+02 -4.563656e-02) (6.159365e-02 1.243514e-02 3.099411e-05) (0.000000e+00 0.000000e+00 0.000000e+00)) ((3.389361e-01 1.719556e-01 -1.010863e+02) (-7.548845e-06 3.566236e-05 9.351542e-03) (0.000000e+00 0.000000e+00 0.000000e+00))
6.000000e-02	((2.335624e+02 -5.758948e+02 -5.461651e-02) (6.233092e-02 1.257786e-02 3.857548e-05) (0.000000e+00 0.000000e+00 0.000000e+00)) ((3.156670e-01 1.533566e-01 -1.038148e+02) (-8.668032e-06 3.450812e-05 9.472084e-03) (0.000000e+00 0.000000e+00 0.000000e+00))
6.100000e-02	((2.393310e+02 -5.904574e+02 -6.314533e-02) (6.305917e-02 1.272122e-02 3.564598e-05) (0.000000e+00 0.000000e+00 0.000000e+00)) ((3.117589e-01 1.498250e-01 -1.065419e+02) (-6.486078e-06 3.518879e-05 9.591448e-03) (0.000000e+00 0.000000e+00 0.000000e+00))
6.200000e-02	((2.450277e+02 -6.049446e+02 -6.517123e-02) (6.375631e-02 1.286584e-02 4.562489e-05) (0.000000e+00 0.000000e+00 0.000000e+00)) ((3.067022e-01 1.508124e-01 -1.092461e+02) (-8.031169e-06 3.197193e-05 9.706111e-03) (0.000000e+00 0.000000e+00 0.000000e+00))
6.300000e-02	((2.507546e+02 -6.194274e+02 -6.912349e-02) (6.443879e-02 1.300350e-02 4.683884e-05) (0.000000e+00 0.000000e+00 0.000000e+00)) ((2.825164e-01 1.450822e-01 -1.119577e+02) (-6.407804e-06 3.066844e-05 9.816168e-03) (0.000000e+00 0.000000e+00 0.000000e+00))
6.400000e-02	((2.564573e+02 -6.339548e+02 -7.003044e-02) (6.510162e-02 1.314345e-02 5.793153e-05) (0.000000e+00 0.000000e+00 0.000000e+00)) ((2.566817e-01 1.352031e-01 -1.146666e+02) (-8.052910e-06 2.815233e-05 9.922742e-03) (0.000000e+00 0.000000e+00 0.000000e+00))
6.500000e-02	((2.620572e+02 -6.482305e+02 -7.208138e-02) (6.576112e-02 1.328152e-02 5.797636e-05) (0.000000e+00 0.000000e+00 0.000000e+00)) ((2.376932e-01 1.222508e-01 -1.173228e+02) (-6.464343e-06 2.756778e-05 1.002789e-02) (0.000000e+00 0.000000e+00 0.000000e+00))
6.600000e-02	((2.674521e+02 -6.620655e+02 -7.096543e-02) (6.640410e-02 1.342017e-02 7.052926e-05) (0.000000e+00 0.000000e+00 0.000000e+00)) ((2.274842e-01 1.184194e-01 -1.198855e+02) (-9.890548e-06 2.603344e-05 1.013150e-02) (0.000000e+00 0.000000e+00 0.000000e+00))
6.700000e-02	((2.727438e+02 -6.755788e+02 -6.806873e-02) (6.705401e-02 1.356410e-02 7.327286e-05) (0.000000e+00 0.000000e+00 0.000000e+00)) ((2.350355e-01 1.149775e-01 -1.223956e+02) (-8.621718e-06 2.477363e-05 1.023625e-02) (0.000000e+00 0.000000e+00 0.000000e+00))
6.800000e-02	((2.779654e+02 -6.888492e+02 -6.889671e-02) (6.768774e-02 1.371504e-02 8.572496e-05) (0.000000e+00 0.000000e+00 0.000000e+00)) ((2.362592e-01 1.079550e-01 -1.248729e+02) (-1.241960e-05 2.351767e-05 1.034190e-02) (0.000000e+00 0.000000e+00 0.000000e+00))
6.900000e-02	((2.831685e+02 -7.019919e+02 -7.421947e-02) (6.833545e-02 1.386348e-02 8.346975e-05) (0.000000e+00 0.000000e+00 0.000000e+00)) ((2.317387e-01 9.994081e-02 -1.273413e+02) (-9.214318e-06 2.336750e-05 1.044729e-02) (0.000000e+00 0.000000e+00 0.000000e+00))
7.000000e-02	((2.883205e+02 -7.150222e+02 -7.601457e-02) (6.896169e-02 1.401885e-02 9.704158e-05) (0.000000e+00 0.000000e+00 0.000000e+00)) ((2.295723e-01 1.000500e-01 -1.297893e+02) (-1.313635e-05 2.384391e-05 1.055320e-02) (0.000000e+00 0.000000e+00 0.000000e+00))
7.100000e-02	((2.934545e+02 -7.279869e+02 -7.912137e-02) (6.961386e-02 1.417400e-02 9.244790e-05) (0.000000e+00 0.000000e+00 0.000000e+00)) ((2.318900e-01 1.013192e-01 -1.322271e+02) (-8.705462e-06 2.265770e-05 1.065936e-02) (0.000000e+00 0.000000e+00 0.000000e+00))
7.200000e-02	((2.985700e+02 -7.408612e+02 -8.480146e-02) (7.024837e-02 1.433534e-02 1.105641e-04) (0.000000e+00 0.000000e+00 0.000000e+00)) ((2.273491e-01 1.021425e-01 -1.346527e+02) (-1.251753e-05 2.392643e-05 1.076598e-02) (0.000000e+00 0.000000e+00 0.000000e+00))
7.300000e-02	((3.036816e+02 -7.536418e+02 -8.974312e-02) (7.091985e-02 1.450603e-02 9.949909e-05) (0.000000e+00 0.000000e+00 0.000000e+00)) ((1.920735e-01 8.312100e-02 -1.370720e+02) (-7.511291e-06 2.348575e-05 1.087622e-02) (0.000000e+00 0.000000e+00 0.000000e+00))
7.400000e-02	((3.086936e+02 -7.662039e+02 -9.331039e-02) (7.155980e-02 1.468324e-02 1.136957e-04) (0.000000e+00 0.000000e+00 0.000000e+00)) ((1.627190e-01 7.073992e-02 -1.394527e+02) (-1.642841e-05 2.735794e-05 1.098604e-02) (0.000000e+00 0.000000e+00 0.000000e+00))
7.500000e-02	((3.136873e+02 -7.786723e+02 -1.022977e-01) (7.223281e-02 1.487725e-02 9.623200e-05) (0.000000e+00 0.000000e+00 0.000000e+00)) ((1.730554e-01 8.080925e-02 -1.418255e+02) (-1.233854e-05 2.818137e-05 1.110187e-02) (0.000000e+00 0.000000e+00 0.000000e+00))
7.600000e-02	((3.187038e+02 -7.911659e+02 -9.850063e-02) (7.286396e-02 1.507110e-02 1.153600e-04) (0.000000e+00 0.000000e+00 0.000000e+00)) ((1.992571e-01 9.463586e-02 -1.442158e+02) (-2.207126e-05 2.954757e-05 1.121605e-02) (0.000000e+00 0.000000e+00 0.000000e+00))
7.700000e-02	((3.236660e+02 -8.035119e+02 -1.087665e-01) (7.351719e-02 1.528424e-02 1.020558e-04) (0.000000e+00 0.000000e+00 0.000000e+00)) ((2.132975e-01 1.075105e-01 -1.465798e+02) (-1.734748e-05 2.850093e-05 1.133608e-02) (0.000000e+00 0.000000e+00 0.000000e+00))
7.800000e-02	((3.284716e+02 -8.155489e+02 -1.094232e-01) (7.413537e-02 1.549206e-02 1.196224e-04) (0.000000e+00 0.000000e+00 0.000000e+00)) ((2.295062e-01 1.196166e-01 -1.488765e+02) (-2.494844e-05 2.758094e-05 1.145275e-02) (0.000000e+00 0.000000e+00 0.000000e+00))
7.900000e-02	((3.331728e+02 -8.273465e+02 -1.163618e-01) (7.476686e-02 1.571423e-02 1.146655e-04) (0.000000e+00 0.000000e+00 0.000000e+00)) ((2.533483e-01 1.333127e-01 -1.511268e+02) (-2.081004e-05 2.646843e-05 1.157319e-02) (0.000000e+00 0.000000e+00 0.000000e+00))
8.000000e-02	((3.378131e+02 -8.390250e+02 -1.188448e-01) (7.537294e-02 1.593026e-02 1.287610e-04) (0.000000e+00 0.000000e+00 0.000000e+00)) ((2.441824e-01 1.303476e-01 -1.533573e+02) (-2.735698e-05 2.401254e-05 1.168989e-02) (0.000000e+00 0.000000e+00 0.000000e+00))
8.100000e-02	((3.423848e+02 -8.505577e+02 -1.299322e-01) (7.597868e-02 1.615311e-02 1.246093e-04) (0.000000e+00 0.000000e+00 0.000000e+00)) ((2.236770e-01 1.204246e-01 -1.555563e+02) (-2.401961e-05 2.443451e-05 1.180780e-02) (0.000000e+00 0.000000e+00 0.000000e+00))
8.200000e-02	((3.468785e+02 -8.619221e+02 -1.319426e-01) (7.656098e-02 1.637137e-02 1.350206e-04) (0.000000e+00 0.000000e+00 0.000000e+00)) ((2.091670e-01 1.121178e-01 -1.577221e+02) (-2.915199e-05 2.228945e-05 1.192208e-02) (0.000000e+00 0.000000e+00 0.000000e+00))
8.300000e-02	((3.513112e+02 -8.731462e+02 -1.375988e-01) (7.714138e-02 1.658977e-02 1.315814e-04) (0.000000e+00 0.000000e+00 0.000000e+00)) ((2.008450e-01 1.051585e-01 -1.598595e+02) (-2.620885e-05 2.238947e-05 1.203610e-02) (0.000000e+00 0.000000e+00 0.000000e+00))
8.400000e-02	((3.556669e+02 -8.841835e+02 -1.429345e-01) (7.769972e-02 1.681258e-02 1.399759e-04) (0.000000e+00 0.000000e+00 0.000000e+00)) ((2.059169e-01 1.081424e-01 -1.619632e+02) (-2.977061e-05 1.937500e-05 1.214855e-02) (0.000000e+00 0.000000e+00 0.000000e+00))
8.500000e-02	((3.599226e+02 -8.949981e+02 -1.461999e-01) (7.824962e-02 1.703365e-02 1.383664e-04) (0.000000e+00 0.000000e+00 0.000000e+00)) ((2.072830e-01 1.054632e-01 -1.640224e+02) (-2.708384e-05 1.843890e-05 1.226067e-02) (0.000000e+00 0.000000e+00 0.000000e+00))
8.600000e-02	((3.640935e+02 -9.055524e+02 -1.485306e-01) (7.878167e-02 1.724833e-02 1.473025e-04) (0.000000e+00 0.000000e+00 0.000000e+00)) ((2.160463e-01 1.095958e-01 -1.660406e+02) (-3.127399e-05 1.491023e-05 1.236844e-02) (0.000000e+00 0.000000e+00 0.000000e+00))
8.700000e-02	((3.681580e+02 -9.159162e+02 -1.548168e-01) (7.930622e-02 1.746623e-02 1.464419e-04) (0.000000e+00 0.000000e+00 0.000000e+00)) ((2.182963e-01 1.101906e-01 -1.680135e+02) (-2.864676e-05 1.382095e-05 1.247741e-02) (0.000000e+00 0.000000e+00 0.000000e+00))
8.800000e-02	((3.721081e+02 -9.259986e+02 -1.559976e-01) (7.981192e-02 1.767874e-02 1.546708e-04) (0.000000e+00 0.000000e+00 0.000000e+00)) ((2.214922e-01 1.084954e-01 -1.699329e+02) (-3.277822e-05 1.027556e-05 1.258213e-02) (0.000000e+00 0.000000e+00 0.000000e+00))
8.900000e-02	((3.759656e+02 -9.359511e+02 -1.615829e-01) (8.030629e-02 1.788704e-02 1.531797e-04) (0.000000e+00 0.000000e+00 0.000000e+00)) ((2.156104e-01 1.032157e-01 -1.718182e+02) (-2.883663e-05 9.463997e-06 1.268558e-02) (0.000000e+00 0.000000e+00 0.000000e+00))
9.000000e-02	((3.797301e+02 -9.456700e+02 -1.653287e-01) (8.077927e-02 1.809614e-02 1.611043e-04) (0.000000e+00 0.000000e+00 0.000000e+00)) ((2.155610e-01 9.904445e-02 -1.736599e+02) (-3.232361e-05 6.009873e-06 1.278645e-02) (0.000000e+00 0.000000e+00 0.000000e+00))
9.100000e-02	((3.834434e+02 -9.553346e+02 -1.698753e-01) (8.124045e-02 1.829779e-02 1.617666e-04) (0.000000e+00 0.000000e+00 0.000000e+00)) ((2.172739e-01 9.807893e-02 -1.754855e+02) (-2.915249e-05 4.738298e-06 1.288469e-02) (0.000000e+00 0.000000e+00 0.000000e+00))
9.200000e-02	((3.870981e+02 -9.647400e+02 -1.742219e-01) (8.168314e-02 1.849618e-02 1.666489e-04) (0.000000e+00 0.000000e+00 0.000000e+00)) ((2.256423e-01 9.996433e-02 -1.772754e+02) (-3.177761e-05 2.349189e-07 1.298039e-02) (0.000000e+00 0.000000e+00 0.000000e+00))
9.300000e-02	((3.907051e+02 -9.740838e+02 -1.786975e-01) (8.211501e-02 1.869562e-02 1.657763e-04) (0.000000e+00 0.000000e+00 0.000000e+00)) ((2.221258e-01 9.822712e-02 -1.790471e+02) (-2.672974e-05 -1.283083e-06 1.307425e-02) (0.000000e+00 0.000000e+00 0.000000e+00))
9.400000e-02	((3.942171e+02 -9.830771e+02 -1.820944e-01) (8.252932e-02 1.888358e-02 1.733432e-04) (0.000000e+00 0.000000e+00 0.000000e+00)) ((2.231107e-01 9.656228e-02 -1.807658e+02) (-3.040737e-05 -5.959679e-06 1.316440e-02) (0.000000e+00 0.000000e+00 0.000000e+00))
9.500000e-02	((3.976928e+02 -9.920622e+02 -1.853870e-01) (8.293923e-02 1.907469e-02 1.700538e-04) (0.000000e+00 0.000000e+00 0.000000e+00)) ((2.215956e-01 9.787001e-02 -1.824730e+02) (-2.405216e-05 -7.729565e-06 1.325266e-02) (0.000000e+00 0.000000e+00 0.000000e+00))
9.600000e-02	((4.010555e+02 -1.000691e+03 -1.861427e-01) (8.333224e-02 1.925433e-02 1.763709e-04) (0.000000e+00 0.000000e+00 0.000000e+00)) ((2.220997e-01 9.733485e-02 -1.841213e+02) (-2.810030e-05 -1.284923e-05 1.334035e-02) (0.000000e+00 0.000000e+00 0.000000e+00))
9.700000e-02	((4.043750e+02 -1.009352e+03 -1.891600e-01) (8.371703e-02 1.943395e-02 1.737634e-04) (0.000000e+00 0.000000e+00 0.000000e+00)) ((2.171942e-01 9.504070e-02 -1.857609e+02) (-2.149789e-05 -1.369082e-05 1.342225e-02) (0.000000e+00 0.000000e+00 0.000000e+00))
9.800000e-02	((4.075715e+02 -1.017599e+03 -1.903196e-01) (8.408064e-02 1.959519e-02 1.799846e-04) (0.000000e+00 0.000000e+00 0.000000e+00)) ((2.134690e-01 8.705621e-02 -1.873347e+02) (-2.699779e-05 -1.834738e-05 1.350415e-02) (0.000000e+00 0.000000e+00 0.000000e+00))
9.900000e-02	((4.107444e+02 -1.025911e+03 -1.929914e-01) (8.443727e-02 1.978313e-02 1.762059e-04) (0.000000e+00 0.000000e+00 0.000000e+00)) ((2.132855e-01 8.907212e-02 -1.889060e+02) (-1.954817e-05 -1.843020e-05 1.358473e-02) (0.000000e+00 0.000000e+00 0.000000e+00))
1.000000e-01	((4.137637e+02 -1.033758e+03 -1.945726e-01) (8.478249e-02 1.993031e-02 1.816322e-04) (0.000000e+00 0.000000e+00 0.000000e+00)) ((2.119974e-01 8.430057e-02 -1.903966e+02) (-2.624936e-05 -2.297360e-05 1.366187e-02) (0.000000e+00 0.000000e+00 0.000000e+00))
1.010000e-01	((4.167827e+02 -1.041720e+03 -1.997047e-01) (8.511242e-02 2.009960e-02 1.745904e-04) (0.000000e+00 0.000000e+00 0.000000e+00)) ((2.012578e-01 8.009237e-02 -1.918955e+02) (-1.825078e-05 -2.280919e-05 1.373473e-02) (0.000000e+00 0.000000e+00 0.000000e+00))
1.020000e-01	((4.196785e+02 -1.049254e+03 -2.016418e-01) (8.544114e-02 2.023684e-02 1.785393e-04) (0.000000e+00 0.000000e+00 0.000000e+00)) ((1.955912e-01 7.081935e-02 -1.933267e+02) (-2.497767e-05 -2.731595e-05 1.380856e-02) (0.000000e+00 0.000000e+00 0.000000e+00))
1.030000e-01	((4.225393e+02 -1.056870e+03 -2.057289e-01) (8.576328e-02 2.040012e-02 1.717446e-04) (0.000000e+00 0.000000e+00 0.000000e+00)) ((1.993834e-01 7.415982e-02 -1.947525e+02) (-1.638614e-05 -2.529987e-05 1.387847e-02) (0.000000e+00 0.000000e+00 0.000000e+00))
1.040000e-01	((4.252850e+02 -1.064044e+03 -2.075803e-01) (8.606731e-02 2.051473e-02 1.779330e-04) (0.000000e+00 0.000000e+00 0.000000e+00)) ((2.122250e-01 7.430247e-02 -1.961114e+02) (-2.197779e-05 -2.872539e-05 1.394673e-02) (0.000000e+00 0.000000e+00 0.000000e+00))
1.050000e-01	((4.280025e+02 -1.071310e+03 -2.129717e-01) (8.634869e-02 2.067768e-02 1.706338e-04) (0.000000e+00 0.000000e+00 0.000000e+00)) ((2.222472e-01 7.845907e-02 -1.974705e+02) (-1.231286e-05 -2.565347e-05 1.401116e-02) (0.000000e+00 0.000000e+00 0.000000e+00))
1.060000e-01	((4.305360e+02 -1.078003e+03 -2.162781e-01) (8.662128e-02 2.079408e-02 1.771860e-04) (0.000000e+00 0.000000e+00 0.000000e+00)) ((2.363050e-01 7.999139e-02 -1.987323e+02) (-1.945254e-05 -2.980449e-05 1.407503e-02) (0.000000e+00 0.000000e+00 0.000000e+00))
1.070000e-01	((4.330818e+02 -1.084834e+03 -2.214029e-01) (8.687711e-02 2.095477e-02 1.717067e-04) (0.000000e+00 0.000000e+00 0.000000e+00)) ((2.400920e-01 8.537062e-02 -2.000094e+02) (-1.180162e-05 -2.707615e-05 1.413412e-02) (0.000000e+00 0.000000e+00 0.000000e+00))
1.080000e-01	((4.354717e+02 -1.091148e+03 -2.257772e-01) (8.712528e-02 2.106038e-02 1.781718e-04) (0.000000e+00 0.000000e+00 0.000000e+00)) ((2.306579e-01 7.674754e-02 -2.012015e+02) (-2.000680e-05 -3.061470e-05 1.419407e-02) (0.000000e+00 0.000000e+00 0.000000e+00))
1.090000e-01	((4.378626e+02 -1.097624e+03 -2.331706e-01) (8.736151e-02 2.122174e-02 1.696833e-04) (0.000000e+00 0.000000e+00 0.000000e+00)) ((2.133396e-01 6.937039e-02 -2.024074e+02) (-9.742161e-06 -2.601303e-05 1.424927e-02) (0.000000e+00 0.000000e+00 0.000000e+00))
1.100000e-01	((4.401013e+02 -1.103602e+03 -2.372191e-01) (8.760594e-02 2.131683e-02 1.754347e-04) (0.000000e+00 0.000000e+00 0.000000e+00)) ((2.031122e-01 5.990505e-02 -2.035297e+02) (-1.733362e-05 -3.047441e-05 1.430555e-02) (0.000000e+00 0.000000e+00 0.000000e+00))
1.110000e-01	((4.423726e+02 -1.109782e+03 -2.421886e-01) (8.790306e-02 2.143943e-02 1.722635e-04) (0.000000e+00 0.000000e+00 0.000000e+00)) ((1.960059e-01 5.967212e-02 -2.046770e+02) (-1.323644e-05 -3.441116e-05 1.436338e-02) (0.000000e+00 0.000000e+00 0.000000e+00))