# Force coefficients
# liftDir    : (0.000000e+00 1.000000e+00 0.000000e+00)
# dragDir    : (1.000000e+00 0.000000e+00 0.000000e+00)
# pitchAxis  : (0.000000e+00 0.000000e+00 1.000000e+00)
# magUInf    : 5.148000e+01
# lRef       : 4.530000e-01
# Aref       : 4.348800e-01
# CofR       : (0.000000e+00 0.000000e+00 0.000000e+00)
# Time       	Cm           	Cd           	Cl           	Cl(f)        	Cl(r)        	Cm	Cd	Cl	Cl(f)	Cl(r)
1.000000e-03	-1.407713e-03	1.538022e-03	-2.372247e-03	-2.593837e-03	2.215901e-04
2.000000e-03	-5.362738e-03	6.041456e-03	-9.574766e-03	-1.015012e-02	5.753552e-04
3.000000e-03	-7.907254e-03	8.947863e-03	-1.485724e-02	-1.533588e-02	4.786319e-04
4.000000e-03	-8.351608e-03	9.446107e-03	-1.656577e-02	-1.663449e-02	6.872175e-05
5.000000e-03	-7.967407e-03	8.950811e-03	-1.689289e-02	-1.641385e-02	-4.790363e-04
6.000000e-03	-7.895798e-03	8.691135e-03	-1.785288e-02	-1.682224e-02	-1.030639e-03
7.000000e-03	-8.354656e-03	8.918838e-03	-1.969602e-02	-1.820267e-02	-1.493355e-03
8.000000e-03	-9.720761e-03	1.012758e-02	-2.314589e-02	-2.129370e-02	-1.852183e-03
9.000000e-03	-1.163342e-02	1.195814e-02	-2.757265e-02	-2.541975e-02	-2.152899e-03
1.000000e-02	-1.364500e-02	1.393910e-02	-3.215931e-02	-2.972465e-02	-2.434660e-03
1.100000e-02	-1.539039e-02	1.565539e-02	-3.627849e-02	-3.352963e-02	-2.748855e-03
1.200000e-02	-1.699249e-02	1.724452e-02	-4.015926e-02	-3.707212e-02	-3.087137e-03
1.300000e-02	-1.844967e-02	1.868089e-02	-4.383484e-02	-4.036709e-02	-3.467755e-03
1.400000e-02	-1.991157e-02	2.011781e-02	-4.755596e-02	-4.368955e-02	-3.866411e-03
1.500000e-02	-2.163805e-02	2.182887e-02	-5.183207e-02	-4.755409e-02	-4.277986e-03
1.600000e-02	-2.384969e-02	2.404935e-02	-5.712316e-02	-5.241127e-02	-4.711891e-03
1.700000e-02	-2.653816e-02	2.674377e-02	-6.347876e-02	-5.827754e-02	-5.201221e-03
1.800000e-02	-2.949946e-02	2.970225e-02	-7.052438e-02	-6.476165e-02	-5.762727e-03
1.900000e-02	-3.258330e-02	3.274028e-02	-7.802979e-02	-7.159819e-02	-6.431598e-03
2.000000e-02	-3.566681e-02	3.573105e-02	-8.569437e-02	-7.851399e-02	-7.180378e-03
2.100000e-02	-3.860838e-02	3.854002e-02	-9.319100e-02	-8.520388e-02	-7.987122e-03
2.200000e-02	-4.136566e-02	4.113265e-02	-1.003732e-01	-9.155226e-02	-8.820932e-03
2.300000e-02	-4.411616e-02	4.369661e-02	-1.075921e-01	-9.791220e-02	-9.679886e-03
2.400000e-02	-4.699864e-02	4.639540e-02	-1.150558e-01	-1.045265e-01	-1.052925e-02
2.500000e-02	-5.020857e-02	4.943940e-02	-1.231769e-01	-1.117970e-01	-1.137986e-02
2.600000e-02	-5.376888e-02	5.286307e-02	-1.319772e-01	-1.197575e-01	-1.221973e-02
2.700000e-02	-5.771802e-02	5.669885e-02	-1.416366e-01	-1.285363e-01	-1.310030e-02
2.800000e-02	-6.198136e-02	6.086586e-02	-1.520399e-01	-1.380013e-01	-1.403861e-02
2.900000e-02	-6.644458e-02	6.524062e-02	-1.629954e-01	-1.479423e-01	-1.505312e-02
3.000000e-02	-7.095802e-02	6.967516e-02	-1.741506e-01	-1.580333e-01	-1.611729e-02
3.100000e-02	-7.538981e-02	7.403526e-02	-1.852172e-01	-1.679984e-01	-1.721881e-02
3.200000e-02	-7.983914e-02	7.841876e-02	-1.963408e-01	-1.780095e-01	-1.833123e-02
3.300000e-02	-8.432372e-02	8.285269e-02	-2.075211e-01	-1.880843e-01	-1.943684e-02
3.400000e-02	-8.892381e-02	8.742157e-02	-2.189069e-01	-1.983773e-01	-2.052965e-02
3.500000e-02	-9.375522e-02	9.224268e-02	-2.307413e-01	-2.091259e-01	-2.161544e-02
3.600000e-02	-9.884186e-02	9.734655e-02	-2.430644e-01	-2.203741e-01	-2.269034e-02
3.700000e-02	-1.041517e-01	1.027024e-01	-2.558320e-01	-2.320677e-01	-2.376428e-02
3.800000e-02	-1.096973e-01	1.083155e-01	-2.690456e-01	-2.442201e-01	-2.482554e-02
3.900000e-02	-1.153237e-01	1.140276e-01	-2.824354e-01	-2.565414e-01	-2.589401e-02
4.000000e-02	-1.211237e-01	1.199147e-01	-2.962007e-01	-2.692241e-01	-2.697664e-02
4.100000e-02	-1.270585e-01	1.259267e-01	-3.102397e-01	-2.821783e-01	-2.806136e-02
4.200000e-02	-1.331194e-01	1.320511e-01	-3.245163e-01	-2.953776e-01	-2.913877e-02
4.300000e-02	-1.392536e-01	1.382414e-01	-3.389003e-01	-3.087037e-01	-3.019656e-02
4.400000e-02	-1.455211e-01	1.445575e-01	-3.534577e-01	-3.222500e-01	-3.120771e-02
4.500000e-02	-1.518756e-01	1.509648e-01	-3.680346e-01	-3.358929e-01	-3.214172e-02
4.600000e-02	-1.583335e-01	1.574795e-01	-3.826104e-01	-3.496387e-01	-3.297174e-02
4.700000e-02	-1.649073e-01	1.641100e-01	-3.972676e-01	-3.635411e-01	-3.372651e-02
4.800000e-02	-1.716959e-01	1.709513e-01	-4.121721e-01	-3.777819e-01	-3.439016e-02
4.900000e-02	-1.786668e-01	1.779584e-01	-4.273529e-01	-3.923433e-01	-3.500964e-02
5.000000e-02	-1.858185e-01	1.851165e-01	-4.428744e-01	-4.072557e-01	-3.561869e-02
5.100000e-02	-1.929548e-01	1.922294e-01	-4.584058e-01	-4.221577e-01	-3.624810e-02
5.200000e-02	-2.000341e-01	1.992494e-01	-4.738338e-01	-4.369510e-01	-3.688279e-02
5.300000e-02	-2.070106e-01	2.061342e-01	-4.890312e-01	-4.515262e-01	-3.750498e-02
5.400000e-02	-2.138574e-01	2.128507e-01	-5.039264e-01	-4.658206e-01	-3.810578e-02
5.500000e-02	-2.204760e-01	2.193045e-01	-5.183109e-01	-4.796314e-01	-3.867947e-02
5.600000e-02	-2.269255e-01	2.255551e-01	-5.322848e-01	-4.930680e-01	-3.921687e-02
5.700000e-02	-2.332399e-01	2.316401e-01	-5.459200e-01	-5.061999e-01	-3.972013e-02
5.800000e-02	-2.394933e-01	2.376310e-01	-5.593630e-01	-5.191747e-01	-4.018823e-02
5.900000e-02	-2.457932e-01	2.436282e-01	-5.728720e-01	-5.322292e-01	-4.064285e-02
6.000000e-02	-2.520549e-01	2.495374e-01	-5.863401e-01	-5.452250e-01	-4.111514e-02
6.100000e-02	-2.582299e-01	2.553054e-01	-5.997154e-01	-5.580876e-01	-4.162779e-02
6.200000e-02	-2.643191e-01	2.609339e-01	-6.130067e-01	-5.708224e-01	-4.218431e-02
6.300000e-02	-2.702924e-01	2.664002e-01	-6.261403e-01	-5.833626e-01	-4.277773e-02
6.400000e-02	-2.761617e-01	2.717236e-01	-6.391300e-01	-5.957267e-01	-4.340334e-02
6.500000e-02	-2.818885e-01	2.768738e-01	-6.518941e-01	-6.078356e-01	-4.405853e-02
6.600000e-02	-2.875472e-01	2.819340e-01	-6.645473e-01	-6.198209e-01	-4.472640e-02
6.700000e-02	-2.930419e-01	2.868175e-01	-6.768899e-01	-6.314869e-01	-4.540303e-02
6.800000e-02	-2.982996e-01	2.914643e-01	-6.887695e-01	-6.426844e-01	-4.608510e-02
6.900000e-02	-3.032999e-01	2.958670e-01	-7.001163e-01	-6.533580e-01	-4.675829e-02
7.000000e-02	-3.080135e-01	3.000079e-01	-7.108422e-01	-6.634346e-01	-4.740755e-02
7.100000e-02	-3.124894e-01	3.039408e-01	-7.210445e-01	-6.730116e-01	-4.803287e-02
7.200000e-02	-3.167601e-01	3.077003e-01	-7.307714e-01	-6.821458e-01	-4.862555e-02
7.300000e-02	-3.209045e-01	3.113600e-01	-7.402021e-01	-6.910056e-01	-4.919653e-02
7.400000e-02	-3.249558e-01	3.149457e-01	-7.494281e-01	-6.996698e-01	-4.975829e-02
7.500000e-02	-3.288895e-01	3.184481e-01	-7.583836e-01	-7.080813e-01	-5.030228e-02
7.600000e-02	-3.326761e-01	3.218488e-01	-7.669971e-01	-7.161747e-01	-5.082243e-02
7.700000e-02	-3.363094e-01	3.251352e-01	-7.752671e-01	-7.239430e-01	-5.132416e-02
7.800000e-02	-3.397999e-01	3.283219e-01	-7.832097e-01	-7.314048e-01	-5.180490e-02
7.900000e-02	-3.431952e-01	3.314573e-01	-7.908799e-01	-7.386352e-01	-5.224471e-02
8.000000e-02	-3.465124e-01	3.345657e-01	-7.982870e-01	-7.456559e-01	-5.263104e-02
8.100000e-02	-3.498025e-01	3.376984e-01	-8.055102e-01	-7.525576e-01	-5.295265e-02
8.200000e-02	-3.530824e-01	3.408742e-01	-8.125653e-01	-7.593650e-01	-5.320028e-02
8.300000e-02	-3.564024e-01	3.441465e-01	-8.195180e-01	-7.661614e-01	-5.335658e-02
8.400000e-02	-3.597419e-01	3.474965e-01	-8.263113e-01	-7.728976e-01	-5.341377e-02
8.500000e-02	-3.630461e-01	3.508621e-01	-8.328633e-01	-7.794777e-01	-5.338556e-02
8.600000e-02	-3.663811e-01	3.543067e-01	-8.393000e-01	-7.860311e-01	-5.326885e-02
8.700000e-02	-3.697132e-01	3.577944e-01	-8.455596e-01	-7.924930e-01	-5.306659e-02
8.800000e-02	-3.729765e-01	3.612502e-01	-8.515340e-01	-7.987435e-01	-5.279053e-02
8.900000e-02	-3.760743e-01	3.645831e-01	-8.570245e-01	-8.045865e-01	-5.243796e-02
9.000000e-02	-3.790560e-01	3.678532e-01	-8.620848e-01	-8.100984e-01	-5.198640e-02
9.100000e-02	-3.818989e-01	3.710421e-01	-8.666743e-01	-8.152361e-01	-5.143826e-02
9.200000e-02	-3.846539e-01	3.741975e-01	-8.708679e-01	-8.200878e-01	-5.078007e-02
9.300000e-02	-3.873212e-01	3.773174e-01	-8.746469e-01	-8.246447e-01	-5.000225e-02
9.400000e-02	-3.898135e-01	3.803146e-01	-8.778357e-01	-8.287313e-01	-4.910438e-02
9.500000e-02	-3.921641e-01	3.832287e-01	-8.804395e-01	-8.323838e-01	-4.805564e-02
9.600000e-02	-3.943269e-01	3.860295e-01	-8.823187e-01	-8.354863e-01	-4.683242e-02
9.700000e-02	-3.963198e-01	3.887202e-01	-8.835331e-01	-8.380863e-01	-4.544680e-02
9.800000e-02	-3.982907e-01	3.914132e-01	-8.845251e-01	-8.405533e-01	-4.397182e-02
9.900000e-02	-4.001980e-01	3.940341e-01	-8.853734e-01	-8.428847e-01	-4.248872e-02
1.000000e-01	-4.020209e-01	3.965433e-01	-8.861998e-01	-8.451207e-01	-4.107902e-02
1.010000e-01	-4.037227e-01	3.988983e-01	-8.869675e-01	-8.472065e-01	-3.976100e-02
1.020000e-01	-4.053503e-01	4.011556e-01	-8.877658e-01	-8.492332e-01	-3.853255e-02
1.030000e-01	-4.068624e-01	4.032745e-01	-8.884827e-01	-8.511038e-01	-3.737895e-02
1.040000e-01	-4.083149e-01	4.053174e-01	-8.892484e-01	-8.529391e-01	-3.630926e-02
1.050000e-01	-4.097114e-01	4.072805e-01	-8.900509e-01	-8.547369e-01	-3.531404e-02
1.060000e-01	-4.110412e-01	4.091503e-01	-8.908964e-01	-8.564894e-01	-3.440698e-02
1.070000e-01	-4.122613e-01	4.108870e-01	-8.917129e-01	-8.581177e-01	-3.359521e-02
1.080000e-01	-4.134088e-01	4.125273e-01	-8.925788e-01	-8.596982e-01	-3.288054e-02
1.090000e-01	-4.144498e-01	4.140320e-01	-8.933910e-01	-8.611453e-01	-3.224564e-02
1.100000e-01	-4.155237e-01	4.155265e-01	-8.944509e-01	-8.627491e-01	-3.170178e-02
1.110000e-01	-4.166547e-01	4.170428e-01	-8.957586e-01	-8.645340e-01	-3.122456e-02
1.120000e-01	-4.178223e-01	4.185577e-01	-8.973008e-01	-8.664727e-01	-3.082808e-02
1.130000e-01	-4.189537e-01	4.199944e-01	-8.989042e-01	-8.684057e-01	-3.049842e-02
1.140000e-01	-4.200925e-01	4.214066e-01	-9.006436e-01	-8.704143e-01	-3.022929e-02
1.150000e-01	-4.213225e-01	4.228695e-01	-9.026934e-01	-8.726692e-01	-3.002413e-02
1.160000e-01	-4.227223e-01	4.244711e-01	-9.051494e-01	-8.752970e-01	-2.985239e-02
1.170000e-01	-4.244312e-01	4.263341e-01	-9.083032e-01	-8.785828e-01	-2.972035e-02
1.180000e-01	-4.263942e-01	4.284080e-01	-9.120411e-01	-8.824147e-01	-2.962642e-02
1.190000e-01	-4.286001e-01	4.306682e-01	-9.163863e-01	-8.867932e-01	-2.959310e-02
1.200000e-01	-4.310396e-01	4.331034e-01	-9.213292e-01	-8.917042e-01	-2.962505e-02
1.210000e-01	-4.336262e-01	4.355971e-01	-9.267984e-01	-8.970254e-01	-2.977296e-02
1.220000e-01	-4.363191e-01	4.381250e-01	-9.327157e-01	-9.026770e-01	-3.003872e-02
1.230000e-01	-4.390214e-01	4.405703e-01	-9.389500e-01	-9.084964e-01	-3.045363e-02
1.240000e-01	-4.416204e-01	4.428383e-01	-9.452334e-01	-9.142371e-01	-3.099631e-02
1.250000e-01	-4.441335e-01	4.449277e-01	-9.516164e-01	-9.199417e-01	-3.167470e-02
1.260000e-01	-4.466446e-01	4.469538e-01	-9.581906e-01	-9.257399e-01	-3.245070e-02
1.270000e-01	-4.491948e-01	4.489529e-01	-9.649772e-01	-9.316834e-01	-3.329376e-02
1.280000e-01	-4.518999e-01	4.510630e-01	-9.721578e-01	-9.379788e-01	-3.417899e-02
1.290000e-01	-4.547980e-01	4.533040e-01	-9.798095e-01	-9.447028e-01	-3.510673e-02
1.300000e-01	-4.577792e-01	4.555682e-01	-9.877670e-01	-9.516627e-01	-3.610429e-02
1.310000e-01	-4.608381e-01	4.578539e-01	-9.959668e-01	-9.588215e-01	-3.714532e-02
1.320000e-01	-4.638460e-01	4.600586e-01	-1.004150e+00	-9.659209e-01	-3.822883e-02
1.330000e-01	-4.667994e-01	4.622160e-01	-1.012132e+00	-9.728653e-01	-3.926647e-02
1.340000e-01	-4.695817e-01	4.642455e-01	-1.019631e+00	-9.793972e-01	-4.023376e-02
1.350000e-01	-4.721686e-01	4.661425e-01	-1.026528e+00	-9.854325e-01	-4.109525e-02
1.360000e-01	-4.746101e-01	4.679870e-01	-1.032866e+00	-9.910434e-01	-4.182310e-02
1.370000e-01	-4.771020e-01	4.699883e-01	-1.038933e+00	-9.965686e-01	-4.236455e-02
1.380000e-01	-4.798453e-01	4.723491e-01	-1.045128e+00	-1.002409e+00	-4.271849e-02
1.390000e-01	-4.826910e-01	4.748843e-01	-1.051245e+00	-1.008314e+00	-4.293154e-02
1.400000e-01	-4.853985e-01	4.773315e-01	-1.056932e+00	-1.013865e+00	-4.306765e-02
1.410000e-01	-4.875856e-01	4.793203e-01	-1.061435e+00	-1.018303e+00	-4.313218e-02
1.420000e-01	-4.885462e-01	4.801831e-01	-1.063352e+00	-1.020222e+00	-4.312978e-02
1.430000e-01	-4.880910e-01	4.796908e-01	-1.062496e+00	-1.019339e+00	-4.315689e-02
1.440000e-01	-4.865667e-01	4.781838e-01	-1.059491e+00	-1.016312e+00	-4.317883e-02
1.450000e-01	-4.847924e-01	4.764998e-01	-1.055909e+00	-1.012747e+00	-4.316211e-02
1.460000e-01	-4.832534e-01	4.751338e-01	-1.052599e+00	-1.009553e+00	-4.304638e-02
1.470000e-01	-4.821693e-01	4.742978e-01	-1.050087e+00	-1.007213e+00	-4.287403e-02
1.480000e-01	-4.812436e-01	4.736718e-01	-1.047934e+00	-1.005211e+00	-4.272329e-02
1.490000e-01	-4.802379e-01	4.730154e-01	-1.045738e+00	-1.003107e+00	-4.263113e-02
1.500000e-01	-4.789258e-01	4.720826e-01	-1.043133e+00	-1.000492e+00	-4.264057e-02
1.510000e-01	-4.770620e-01	4.705740e-01	-1.039772e+00	-9.969481e-01	-4.282420e-02
1.520000e-01	-4.743171e-01	4.681089e-01	-1.035108e+00	-9.918713e-01	-4.323713e-02
1.530000e-01	-4.709841e-01	4.649819e-01	-1.029550e+00	-9.857591e-01	-4.379083e-02
1.540000e-01	-4.674378e-01	4.615655e-01	-1.023670e+00	-9.792728e-01	-4.439721e-02
1.550000e-01	-4.642931e-01	4.584976e-01	-1.018449e+00	-9.735174e-01	-4.493114e-02
1.560000e-01	-4.620181e-01	4.562694e-01	-1.014600e+00	-9.693183e-01	-4.528206e-02
1.570000e-01	-4.610281e-01	4.552957e-01	-1.012860e+00	-9.674583e-01	-4.540213e-02
1.580000e-01	-4.614079e-01	4.556369e-01	-1.013466e+00	-9.681411e-01	-4.532535e-02
1.590000e-01	-4.629353e-01	4.570412e-01	-1.016132e+00	-9.710012e-01	-4.513049e-02
1.600000e-01	-4.651060e-01	4.589954e-01	-1.020018e+00	-9.751151e-01	-4.490313e-02
1.610000e-01	-4.674146e-01	4.610350e-01	-1.024170e+00	-9.794994e-01	-4.467027e-02
1.620000e-01	-4.695365e-01	4.628973e-01	-1.027947e+00	-9.835099e-01	-4.443680e-02
1.630000e-01	-4.713991e-01	4.645919e-01	-1.031008e+00	-9.869032e-01	-4.410506e-02
1.640000e-01	-4.731115e-01	4.662500e-01	-1.033493e+00	-9.898580e-01	-4.363498e-02
1.650000e-01	-4.747877e-01	4.680007e-01	-1.035589e+00	-9.925820e-01	-4.300658e-02
1.660000e-01	-4.765132e-01	4.699102e-01	-1.037464e+00	-9.952449e-01	-4.221862e-02
1.670000e-01	-4.782708e-01	4.719269e-01	-1.039088e+00	-9.978147e-01	-4.127312e-02
1.680000e-01	-4.800823e-01	4.740612e-01	-1.040618e+00	-1.000391e+00	-4.022649e-02
1.690000e-01	-4.818472e-01	4.762287e-01	-1.041951e+00	-1.002823e+00	-3.912826e-02
1.700000e-01	-4.833734e-01	4.782179e-01	-1.042824e+00	-1.004786e+00	-3.803871e-02
1.710000e-01	-4.845262e-01	4.798861e-01	-1.043060e+00	-1.006056e+00	-3.700362e-02
1.720000e-01	-4.852145e-01	4.811267e-01	-1.042550e+00	-1.006489e+00	-3.606038e-02
1.730000e-01	-4.855029e-01	4.819887e-01	-1.041400e+00	-1.006203e+00	-3.519692e-02
1.740000e-01	-4.854839e-01	4.825400e-01	-1.039741e+00	-1.005354e+00	-3.438643e-02
1.750000e-01	-4.852701e-01	4.828798e-01	-1.037798e+00	-1.004169e+00	-3.362873e-02
1.760000e-01	-4.849461e-01	4.830933e-01	-1.035758e+00	-1.002825e+00	-3.293274e-02
1.770000e-01	-4.846906e-01	4.833691e-01	-1.033909e+00	-1.001645e+00	-3.226402e-02
1.780000e-01	-4.845343e-01	4.837258e-01	-1.032322e+00	-1.000695e+00	-3.162686e-02
1.790000e-01	-4.845396e-01	4.842328e-01	-1.031198e+00	-1.000139e+00	-3.105955e-02
1.800000e-01	-4.846211e-01	4.847814e-01	-1.030509e+00	-9.998756e-01	-3.063347e-02
1.810000e-01	-4.846603e-01	4.852215e-01	-1.030105e+00	-9.997126e-01	-3.039204e-02
1.820000e-01	-4.844694e-01	4.853204e-01	-1.029737e+00	-9.993377e-01	-3.039902e-02
1.830000e-01	-4.840281e-01	4.850468e-01	-1.029377e+00	-9.987167e-01	-3.066048e-02
1.840000e-01	-4.833866e-01	4.844653e-01	-1.029006e+00	-9.978898e-01	-3.111650e-02
1.850000e-01	-4.827883e-01	4.838601e-01	-1.028867e+00	-9.972220e-01	-3.164542e-02
1.860000e-01	-4.824033e-01	4.834207e-01	-1.029201e+00	-9.970038e-01	-3.219714e-02
1.870000e-01	-4.824274e-01	4.833507e-01	-1.030336e+00	-9.975953e-01	-3.274039e-02
1.880000e-01	-4.828024e-01	4.835584e-01	-1.032220e+00	-9.989123e-01	-3.330757e-02
1.890000e-01	-4.835243e-01	4.840298e-01	-1.034876e+00	-1.000962e+00	-3.391363e-02
1.900000e-01	-4.846017e-01	4.847720e-01	-1.038359e+00	-1.003781e+00	-3.457767e-02
1.910000e-01	-4.861574e-01	4.859176e-01	-1.042879e+00	-1.007597e+00	-3.528218e-02
1.920000e-01	-4.882248e-01	4.874995e-01	-1.048499e+00	-1.012474e+00	-3.602468e-02
1.930000e-01	-4.908647e-01	4.895753e-01	-1.055328e+00	-1.018529e+00	-3.679938e-02
1.940000e-01	-4.939922e-01	4.920459e-01	-1.063267e+00	-1.025626e+00	-3.764119e-02
1.950000e-01	-4.976118e-01	4.949118e-01	-1.072363e+00	-1.033793e+00	-3.856962e-02
1.960000e-01	-5.015990e-01	4.980397e-01	-1.082425e+00	-1.042812e+00	-3.961360e-02
1.970000e-01	-5.059428e-01	5.014400e-01	-1.093362e+00	-1.052624e+00	-4.073810e-02
1.980000e-01	-5.105467e-01	5.050376e-01	-1.104967e+00	-1.063030e+00	-4.193669e-02
1.990000e-01	-5.154167e-01	5.088676e-01	-1.117173e+00	-1.074003e+00	-4.316991e-02
2.000000e-01	-5.204440e-01	5.128327e-01	-1.129718e+00	-1.085303e+00	-4.441497e-02
2.010000e-01	-5.255598e-01	5.168948e-01	-1.142421e+00	-1.096771e+00	-4.565090e-02
2.020000e-01	-5.305408e-01	5.208497e-01	-1.154825e+00	-1.107953e+00	-4.687177e-02
2.030000e-01	-5.353231e-01	5.246724e-01	-1.166700e+00	-1.118673e+00	-4.802710e-02
2.040000e-01	-5.396791e-01	5.281656e-01	-1.177559e+00	-1.128459e+00	-4.910055e-02
2.050000e-01	-5.434805e-01	5.312268e-01	-1.187103e+00	-1.137032e+00	-5.007119e-02
2.060000e-01	-5.464756e-01	5.336097e-01	-1.194849e+00	-1.143900e+00	-5.094895e-02
2.070000e-01	-5.486152e-01	5.352725e-01	-1.200705e+00	-1.148968e+00	-5.173754e-02
2.080000e-01	-5.497602e-01	5.360493e-01	-1.204468e+00	-1.151994e+00	-5.247369e-02
2.090000e-01	-5.500266e-01	5.360431e-01	-1.206377e+00	-1.153215e+00	-5.316199e-02
2.100000e-01	-5.495731e-01	5.353755e-01	-1.206815e+00	-1.152980e+00	-5.383421e-02
2.110000e-01	-5.486836e-01	5.343021e-01	-1.206380e+00	-1.151873e+00	-5.450616e-02
2.120000e-01	-5.474520e-01	5.328774e-01	-1.205346e+00	-1.150125e+00	-5.522110e-02
2.130000e-01	-5.460370e-01	5.312463e-01	-1.204024e+00	-1.148049e+00	-5.597486e-02
2.140000e-01	-5.445926e-01	5.295548e-01	-1.202659e+00	-1.145922e+00	-5.673667e-02
2.150000e-01	-5.434349e-01	5.281419e-01	-1.201728e+00	-1.144299e+00	-5.742931e-02
2.160000e-01	-5.427392e-01	5.272035e-01	-1.201493e+00	-1.143486e+00	-5.800733e-02
2.170000e-01	-5.426532e-01	5.269040e-01	-1.202188e+00	-1.143747e+00	-5.844105e-02
2.180000e-01	-5.430937e-01	5.271553e-01	-1.203693e+00	-1.144940e+00	-5.875298e-02
2.190000e-01	-5.439642e-01	5.278529e-01	-1.205902e+00	-1.146915e+00	-5.898693e-02
2.200000e-01	-5.450778e-01	5.287929e-01	-1.208531e+00	-1.149343e+00	-5.918770e-02
2.210000e-01	-5.463598e-01	5.299072e-01	-1.211433e+00	-1.152076e+00	-5.935664e-02
2.220000e-01	-5.476963e-01	5.310854e-01	-1.214371e+00	-1.154882e+00	-5.948908e-02
2.230000e-01	-5.491111e-01	5.323678e-01	-1.217332e+00	-1.157777e+00	-5.955496e-02
2.240000e-01	-5.506054e-01	5.337676e-01	-1.220279e+00	-1.160745e+00	-5.953398e-02
2.250000e-01	-5.522171e-01	5.353342e-01	-1.223250e+00	-1.163842e+00	-5.940769e-02
2.260000e-01	-5.538963e-01	5.370167e-01	-1.226185e+00	-1.166989e+00	-5.919636e-02
2.270000e-01	-5.556044e-01	5.387769e-01	-1.229014e+00	-1.170111e+00	-5.890241e-02
2.280000e-01	-5.572172e-01	5.404809e-01	-1.231575e+00	-1.173005e+00	-5.857016e-02
2.290000e-01	-5.587054e-01	5.421022e-01	-1.233804e+00	-1.175608e+00	-5.819679e-02
2.300000e-01	-5.599946e-01	5.435592e-01	-1.235578e+00	-1.177784e+00	-5.779444e-02
2.310000e-01	-5.611040e-01	5.448728e-01	-1.236907e+00	-1.179558e+00	-5.734950e-02
2.320000e-01	-5.619912e-01	5.459928e-01	-1.237732e+00	-1.180857e+00	-5.687467e-02
2.330000e-01	-5.626885e-01	5.469543e-01	-1.238108e+00	-1.181743e+00	-5.636558e-02
2.340000e-01	-5.631810e-01	5.477314e-01	-1.238014e+00	-1.182188e+00	-5.582621e-02
2.350000e-01	-5.635049e-01	5.483678e-01	-1.237496e+00	-1.182253e+00	-5.524296e-02
2.360000e-01	-5.636549e-01	5.488528e-01	-1.236612e+00	-1.181961e+00	-5.465127e-02
2.370000e-01	-5.636618e-01	5.492181e-01	-1.235387e+00	-1.181355e+00	-5.403157e-02
2.380000e-01	-5.635142e-01	5.494432e-01	-1.233815e+00	-1.180421e+00	-5.339314e-02
2.390000e-01	-5.632599e-01	5.495823e-01	-1.232002e+00	-1.179261e+00	-5.274105e-02
2.400000e-01	-5.628795e-01	5.496031e-01	-1.229960e+00	-1.177860e+00	-5.210068e-02
2.410000e-01	-5.624063e-01	5.495392e-01	-1.227726e+00	-1.176269e+00	-5.145660e-02
2.420000e-01	-5.618197e-01	5.493629e-01	-1.225270e+00	-1.174455e+00	-5.081533e-02
2.430000e-01	-5.611859e-01	5.491465e-01	-1.222742e+00	-1.172557e+00	-5.018490e-02
2.440000e-01	-5.604866e-01	5.488605e-01	-1.220112e+00	-1.170543e+00	-4.956944e-02
2.450000e-01	-5.597735e-01	5.485586e-01	-1.217464e+00	-1.168506e+00	-4.895856e-02
2.460000e-01	-5.590078e-01	5.482003e-01	-1.214740e+00	-1.166378e+00	-4.836213e-02
2.470000e-01	-5.582467e-01	5.478436e-01	-1.212049e+00	-1.164271e+00	-4.777791e-02
2.480000e-01	-5.574567e-01	5.474488e-01	-1.209328e+00	-1.162121e+00	-4.720740e-02
2.490000e-01	-5.566804e-01	5.470590e-01	-1.206637e+00	-1.159999e+00	-4.663831e-02
2.500000e-01	-5.558715e-01	5.466254e-01	-1.203923e+00	-1.157833e+00	-4.609020e-02
2.510000e-01	-5.550751e-01	5.461933e-01	-1.201266e+00	-1.155708e+00	-4.555795e-02
2.520000e-01	-5.542622e-01	5.457324e-01	-1.198610e+00	-1.153567e+00	-4.504274e-02
2.530000e-01	-5.534830e-01	5.452903e-01	-1.196048e+00	-1.151507e+00	-4.454106e-02
2.540000e-01	-5.527141e-01	5.448406e-01	-1.193561e+00	-1.149494e+00	-4.406628e-02
2.550000e-01	-5.520041e-01	5.444320e-01	-1.191239e+00	-1.147624e+00	-4.361546e-02
2.560000e-01	-5.513000e-01	5.440078e-01	-1.188971e+00	-1.145786e+00	-4.318572e-02
2.570000e-01	-5.506542e-01	5.436192e-01	-1.186886e+00	-1.144097e+00	-4.278864e-02
2.580000e-01	-5.500072e-01	5.432068e-01	-1.184879e+00	-1.142447e+00	-4.243241e-02
2.590000e-01	-5.494110e-01	5.428218e-01	-1.183050e+00	-1.140936e+00	-4.211417e-02
2.600000e-01	-5.488158e-01	5.424098e-01	-1.181287e+00	-1.139459e+00	-4.182779e-02
2.610000e-01	-5.482874e-01	5.420418e-01	-1.179726e+00	-1.138151e+00	-4.157564e-02
2.620000e-01	-5.477775e-01	5.416663e-01	-1.178281e+00	-1.136918e+00	-4.136280e-02
2.630000e-01	-5.473300e-01	5.413269e-01	-1.177035e+00	-1.135847e+00	-4.118722e-02
2.640000e-01	-5.468786e-01	5.409521e-01	-1.175862e+00	-1.134810e+00	-4.105258e-02
2.650000e-01	-5.464779e-01	5.406030e-01	-1.174882e+00	-1.133919e+00	-4.096294e-02
2.660000e-01	-5.460829e-01	5.402295e-01	-1.174014e+00	-1.133090e+00	-4.092416e-02
2.670000e-01	-5.457539e-01	5.398993e-01	-1.173332e+00	-1.132420e+00	-4.091235e-02
2.680000e-01	-5.454485e-01	5.395669e-01	-1.172760e+00	-1.131829e+00	-4.093160e-02
2.690000e-01	-5.452341e-01	5.393065e-01	-1.172435e+00	-1.131451e+00	-4.098322e-02
2.700000e-01	-5.450555e-01	5.390577e-01	-1.172259e+00	-1.131185e+00	-4.107408e-02
2.710000e-01	-5.449552e-01	5.388683e-01	-1.172284e+00	-1.131097e+00	-4.118685e-02
2.720000e-01	-5.448781e-01	5.386791e-01	-1.172429e+00	-1.131093e+00	-4.133621e-02
2.730000e-01	-5.448763e-01	5.385510e-01	-1.172780e+00	-1.131266e+00	-4.151357e-02
2.740000e-01	-5.449001e-01	5.384312e-01	-1.173242e+00	-1.131521e+00	-4.172095e-02
2.750000e-01	-5.449993e-01	5.383774e-01	-1.173883e+00	-1.131941e+00	-4.194218e-02
2.760000e-01	-5.451200e-01	5.383316e-01	-1.174620e+00	-1.132430e+00	-4.219001e-02
2.770000e-01	-5.453023e-01	5.383405e-01	-1.175510e+00	-1.133058e+00	-4.245288e-02
2.780000e-01	-5.454886e-01	5.383406e-01	-1.176465e+00	-1.133721e+00	-4.274411e-02
2.790000e-01	-5.457199e-01	5.383811e-01	-1.177527e+00	-1.134483e+00	-4.304358e-02
2.800000e-01	-5.459507e-01	5.384121e-01	-1.178631e+00	-1.135266e+00	-4.336489e-02
2.810000e-01	-5.462293e-01	5.384896e-01	-1.179842e+00	-1.136150e+00	-4.369174e-02
2.820000e-01	-5.465057e-01	5.385602e-01	-1.181069e+00	-1.137040e+00	-4.402894e-02
2.830000e-01	-5.468256e-01	5.386771e-01	-1.182378e+00	-1.138014e+00	-4.436321e-02
2.840000e-01	-5.471358e-01	5.387792e-01	-1.183687e+00	-1.138979e+00	-4.470777e-02
2.850000e-01	-5.474770e-01	5.389139e-01	-1.185049e+00	-1.140001e+00	-4.504732e-02
2.860000e-01	-5.478010e-01	5.390289e-01	-1.186397e+00	-1.141000e+00	-4.539766e-02
2.870000e-01	-5.481563e-01	5.391794e-01	-1.187796e+00	-1.142054e+00	-4.574148e-02
2.880000e-01	-5.484832e-01	5.392980e-01	-1.189124e+00	-1.143045e+00	-4.607882e-02
2.890000e-01	-5.488483e-01	5.394609e-01	-1.190512e+00	-1.144104e+00	-4.640775e-02
2.900000e-01	-5.491965e-01	5.396082e-01	-1.191875e+00	-1.145134e+00	-4.674100e-02
2.910000e-01	-5.495767e-01	5.397925e-01	-1.193258e+00	-1.146206e+00	-4.705230e-02
2.920000e-01	-5.499275e-01	5.399473e-01	-1.194546e+00	-1.147201e+00	-4.734569e-02
2.930000e-01	-5.503149e-01	5.401499e-01	-1.195896e+00	-1.148263e+00	-4.763333e-02
2.940000e-01	-5.506823e-01	5.403361e-01	-1.197197e+00	-1.149281e+00	-4.791635e-02
2.950000e-01	-5.510774e-01	5.405574e-01	-1.198490e+00	-1.150323e+00	-4.816775e-02
2.960000e-01	-5.514421e-01	5.407532e-01	-1.199693e+00	-1.151289e+00	-4.840460e-02
2.970000e-01	-5.518402e-01	5.409966e-01	-1.200959e+00	-1.152320e+00	-4.863930e-02
2.980000e-01	-5.522082e-01	5.412164e-01	-1.202128e+00	-1.153272e+00	-4.885571e-02
2.990000e-01	-5.525978e-01	5.414699e-01	-1.203288e+00	-1.154242e+00	-4.904625e-02
3.000000e-01	-5.529493e-01	5.416955e-01	-1.204340e+00	-1.155119e+00	-4.922061e-02
3.010000e-01	-5.533232e-01	5.419605e-01	-1.205426e+00	-1.156036e+00	-4.938997e-02
3.020000e-01	-5.536580e-01	5.421958e-01	-1.206388e+00	-1.156852e+00	-4.953602e-02
3.030000e-01	-5.539891e-01	5.424409e-01	-1.207299e+00	-1.157638e+00	-4.966019e-02
3.040000e-01	-5.542701e-01	5.426481e-01	-1.208080e+00	-1.158310e+00	-4.976972e-02
3.050000e-01	-5.545466e-01	5.428672e-01	-1.208837e+00	-1.158965e+00	-4.987196e-02
3.060000e-01	-5.547757e-01	5.430482e-01	-1.209467e+00	-1.159509e+00	-4.995793e-02
3.070000e-01	-5.549986e-01	5.432380e-01	-1.210029e+00	-1.160013e+00	-5.001586e-02
3.080000e-01	-5.551803e-01	5.433991e-01	-1.210483e+00	-1.160422e+00	-5.006118e-02
3.090000e-01	-5.553538e-01	5.435677e-01	-1.210900e+00	-1.160804e+00	-5.009596e-02
3.100000e-01	-5.554775e-01	5.436947e-01	-1.211179e+00	-1.161067e+00	-5.011197e-02
3.110000e-01	-5.555882e-01	5.438218e-01	-1.211391e+00	-1.161284e+00	-5.010721e-02
3.120000e-01	-5.556480e-01	5.439064e-01	-1.211474e+00	-1.161385e+00	-5.008872e-02
3.130000e-01	-5.557054e-01	5.440008e-01	-1.211530e+00	-1.161470e+00	-5.005966e-02
3.140000e-01	-5.557215e-01	5.440611e-01	-1.211458e+00	-1.161450e+00	-5.000723e-02
3.150000e-01	-5.557418e-01	5.441346e-01	-1.211369e+00	-1.161426e+00	-4.994268e-02
3.160000e-01	-5.557239e-01	5.441764e-01	-1.211158e+00	-1.161303e+00	-4.985494e-02
3.170000e-01	-5.557164e-01	5.442367e-01	-1.210948e+00	-1.161190e+00	-4.975736e-02
3.180000e-01	-5.556882e-01	5.442808e-01	-1.210671e+00	-1.161024e+00	-4.964731e-02
3.190000e-01	-5.556754e-01	5.443464e-01	-1.210387e+00	-1.160869e+00	-4.951824e-02
3.200000e-01	-5.556359e-01	5.443890e-01	-1.210012e+00	-1.160642e+00	-4.937027e-02
3.210000e-01	-5.556111e-01	5.444521e-01	-1.209666e+00	-1.160444e+00	-4.922193e-02
3.220000e-01	-5.555675e-01	5.444995e-01	-1.209271e+00	-1.160203e+00	-4.906820e-02
3.230000e-01	-5.555314e-01	5.445581e-01	-1.208843e+00	-1.159953e+00	-4.889007e-02
3.240000e-01	-5.554722e-01	5.445948e-01	-1.208363e+00	-1.159654e+00	-4.870932e-02
3.250000e-01	-5.554325e-01	5.446573e-01	-1.207926e+00	-1.159396e+00	-4.853072e-02
3.260000e-01	-5.553712e-01	5.446986e-01	-1.207428e+00	-1.159085e+00	-4.834260e-02
3.270000e-01	-5.553126e-01	5.447448e-01	-1.206913e+00	-1.158769e+00	-4.814375e-02
3.280000e-01	-5.552225e-01	5.447593e-01	-1.206344e+00	-1.158395e+00	-4.794975e-02
3.290000e-01	-5.551439e-01	5.447909e-01	-1.205813e+00	-1.158050e+00	-4.776242e-02
3.300000e-01	-5.550321e-01	5.447863e-01	-1.205196e+00	-1.157630e+00	-4.756579e-02
3.310000e-01	-5.549257e-01	5.447881e-01	-1.204593e+00	-1.157222e+00	-4.737092e-02
3.320000e-01	-5.547859e-01	5.447566e-01	-1.203933e+00	-1.156752e+00	-4.718062e-02
3.330000e-01	-5.546496e-01	5.447303e-01	-1.203298e+00	-1.156299e+00	-4.699949e-02
3.340000e-01	-5.544762e-01	5.446628e-01	-1.202588e+00	-1.155770e+00	-4.681762e-02
3.350000e-01	-5.543046e-01	5.445978e-01	-1.201890e+00	-1.155250e+00	-4.664044e-02
3.360000e-01	-5.540979e-01	5.444953e-01	-1.201139e+00	-1.154667e+00	-4.647139e-02
3.370000e-01	-5.538996e-01	5.443995e-01	-1.200422e+00	-1.154111e+00	-4.631143e-02
3.380000e-01	-5.536707e-01	5.442698e-01	-1.199654e+00	-1.153498e+00	-4.615623e-02
3.390000e-01	-5.534491e-01	5.441455e-01	-1.198919e+00	-1.152908e+00	-4.601021e-02
3.400000e-01	-5.531955e-01	5.439836e-01	-1.198142e+00	-1.152266e+00	-4.587535e-02
3.410000e-01	-5.529567e-01	5.438333e-01	-1.197415e+00	-1.151664e+00	-4.575101e-02
3.420000e-01	-5.526908e-01	5.436503e-01	-1.196650e+00	-1.151016e+00	-4.563396e-02
3.430000e-01	-5.524491e-01	5.434870e-01	-1.195953e+00	-1.150426e+00	-4.552756e-02
3.440000e-01	-5.521845e-01	5.432941e-01	-1.195227e+00	-1.149798e+00	-4.542890e-02
3.450000e-01	-5.519489e-01	5.431266e-01	-1.194580e+00	-1.149239e+00	-4.534124e-02
3.460000e-01	-5.517018e-01	5.429394e-01	-1.193937e+00	-1.148670e+00	-4.526687e-02
3.470000e-01	-5.514914e-01	5.427841e-01	-1.193388e+00	-1.148185e+00	-4.520255e-02
3.480000e-01	-5.512596e-01	5.425984e-01	-1.192804e+00	-1.147662e+00	-4.514246e-02
3.490000e-01	-5.510709e-01	5.424495e-01	-1.192344e+00	-1.147243e+00	-4.510093e-02
3.500000e-01	-5.508732e-01	5.422832e-01	-1.191885e+00	-1.146816e+00	-4.506931e-02
3.510000e-01	-5.507181e-01	5.421543e-01	-1.191530e+00	-1.146483e+00	-4.504705e-02
3.520000e-01	-5.505531e-01	5.420060e-01	-1.191169e+00	-1.146138e+00	-4.503151e-02
3.530000e-01	-5.504384e-01	5.419028e-01	-1.190942e+00	-1.145909e+00	-4.503247e-02
3.540000e-01	-5.503176e-01	5.417851e-01	-1.190714e+00	-1.145674e+00	-4.503924e-02
3.550000e-01	-5.502468e-01	5.417118e-01	-1.190607e+00	-1.145550e+00	-4.505653e-02
3.560000e-01	-5.501674e-01	5.416204e-01	-1.190498e+00	-1.145416e+00	-4.508157e-02
3.570000e-01	-5.501359e-01	5.415728e-01	-1.190513e+00	-1.145392e+00	-4.512043e-02
3.580000e-01	-5.500979e-01	5.415104e-01	-1.190527e+00	-1.145361e+00	-4.516536e-02
3.590000e-01	-5.501091e-01	5.414935e-01	-1.190660e+00	-1.145439e+00	-4.522105e-02
3.600000e-01	-5.501066e-01	5.414557e-01	-1.190776e+00	-1.145494e+00	-4.528117e-02