# Forces     
# CofR       : (0.000000e+00 0.000000e+00 0.000000e+00)
# Time       forces(pressure viscous porous) moment(pressure viscous porous)
1.000000e-03	((1.079758e+00 -1.674535e+00 -9.201899e-05) (5.955485e-03 -7.015614e-05 4.959027e-07) (0.000000e+00 0.000000e+00 0.000000e+00)) ((1.024818e-04 2.780667e-05 -4.502736e-01) (-1.344904e-07 -1.156009e-06 1.155705e-04) (0.000000e+00 0.000000e+00 0.000000e+00))
2.000000e-03	((4.258613e+00 -6.760036e+00 -2.888370e-04) (6.142730e-03 1.062026e-03 1.713751e-06) (0.000000e+00 0.000000e+00 0.000000e+00)) ((-3.149891e-04 -2.069164e-04 -1.715447e+00) (-8.151116e-07 -2.528401e-06 5.530023e-04) (0.000000e+00 0.000000e+00 0.000000e+00))
3.000000e-03	((6.309278e+00 -1.049005e+01 -2.951340e-04) (7.155009e-03 2.097120e-03 -3.066109e-06) (0.000000e+00 0.000000e+00 0.000000e+00)) ((-8.343723e-04 -6.278256e-04 -2.529544e+00) (-3.643549e-06 -4.503240e-07 9.649202e-04) (0.000000e+00 0.000000e+00 0.000000e+00))
4.000000e-03	((6.659223e+00 -1.169720e+01 -4.767795e-04) (8.927890e-03 3.171493e-03 -7.025528e-06) (0.000000e+00 0.000000e+00 0.000000e+00)) ((2.761597e-03 1.662596e-04 -2.672084e+00) (-3.158175e-06 -2.950731e-06 1.410212e-03) (0.000000e+00 0.000000e+00 0.000000e+00))
5.000000e-03	((6.308127e+00 -1.192886e+01 -1.461300e-03) (1.038772e-02 3.910137e-03 -1.079397e-05) (0.000000e+00 0.000000e+00 0.000000e+00)) ((1.260211e-02 2.800417e-03 -2.549578e+00) (-5.518959e-07 2.037877e-06 1.763479e-03) (0.000000e+00 0.000000e+00 0.000000e+00))
6.000000e-03	((6.123644e+00 -1.260702e+01 -1.894845e-03) (1.156099e-02 4.399362e-03 -1.607813e-05) (0.000000e+00 0.000000e+00 0.000000e+00)) ((2.149330e-02 3.814453e-03 -2.526917e+00) (-9.382114e-08 6.927267e-06 2.001601e-03) (0.000000e+00 0.000000e+00 0.000000e+00))
7.000000e-03	((6.283465e+00 -1.390844e+01 -1.148905e-03) (1.247905e-02 4.721112e-03 -1.694589e-05) (0.000000e+00 0.000000e+00 0.000000e+00)) ((2.519708e-02 4.307277e-03 -2.673816e+00) (-1.907836e-06 7.441072e-06 2.167438e-03) (0.000000e+00 0.000000e+00 0.000000e+00))
8.000000e-03	((7.135974e+00 -1.634398e+01 -7.548275e-05) (1.324061e-02 4.948144e-03 -1.868718e-05) (0.000000e+00 0.000000e+00 0.000000e+00)) ((2.728445e-02 5.077766e-03 -3.110788e+00) (-1.041692e-06 6.980593e-06 2.286975e-03) (0.000000e+00 0.000000e+00 0.000000e+00))
9.000000e-03	((8.427506e+00 -1.946907e+01 1.174177e-03) (1.392759e-02 5.117179e-03 -1.254949e-05) (0.000000e+00 0.000000e+00 0.000000e+00)) ((2.589115e-02 5.761423e-03 -3.722517e+00) (-1.592931e-07 3.663790e-06 2.385188e-03) (0.000000e+00 0.000000e+00 0.000000e+00))
1.000000e-02	((9.825236e+00 -2.270699e+01 1.674335e-03) (1.458937e-02 5.236964e-03 -1.097809e-05) (0.000000e+00 0.000000e+00 0.000000e+00)) ((2.379559e-02 6.737997e-03 -4.365868e+00) (-2.772123e-07 1.805668e-06 2.475577e-03) (0.000000e+00 0.000000e+00 0.000000e+00))
1.100000e-02	((1.103613e+01 -2.561487e+01 1.626560e-03) (1.525045e-02 5.331579e-03 -1.224333e-05) (0.000000e+00 0.000000e+00 0.000000e+00)) ((1.999622e-02 6.957812e-03 -4.924096e+00) (-9.873303e-07 3.803713e-06 2.563121e-03) (0.000000e+00 0.000000e+00 0.000000e+00))
1.200000e-02	((1.215727e+01 -2.835444e+01 9.806624e-04) (1.589928e-02 5.410471e-03 -1.452967e-05) (0.000000e+00 0.000000e+00 0.000000e+00)) ((1.917057e-02 8.524759e-03 -5.436500e+00) (-1.813176e-06 3.739275e-06 2.647611e-03) (0.000000e+00 0.000000e+00 0.000000e+00))
1.300000e-02	((1.317057e+01 -3.094918e+01 2.692460e-04) (1.655509e-02 5.494229e-03 -1.239311e-05) (0.000000e+00 0.000000e+00 0.000000e+00)) ((1.569996e-02 8.435205e-03 -5.902566e+00) (-1.848887e-06 3.034579e-06 2.738625e-03) (0.000000e+00 0.000000e+00 0.000000e+00))
1.400000e-02	((1.418426e+01 -3.357608e+01 -5.747812e-04) (1.720442e-02 5.600678e-03 -1.629447e-05) (0.000000e+00 0.000000e+00 0.000000e+00)) ((1.314178e-02 8.447020e-03 -6.370149e+00) (-3.406055e-06 3.994538e-06 2.835227e-03) (0.000000e+00 0.000000e+00 0.000000e+00))
1.500000e-02	((1.539147e+01 -3.659477e+01 -2.993830e-04) (1.786451e-02 5.717802e-03 -1.906787e-05) (0.000000e+00 0.000000e+00 0.000000e+00)) ((1.461712e-02 9.140490e-03 -6.922342e+00) (-4.043632e-06 6.002936e-06 2.933772e-03) (0.000000e+00 0.000000e+00 0.000000e+00))
1.600000e-02	((1.695825e+01 -4.032997e+01 -2.655881e-04) (1.855248e-02 5.855870e-03 -2.209305e-05) (0.000000e+00 0.000000e+00 0.000000e+00)) ((9.055768e-03 8.337220e-03 -7.629682e+00) (-4.514508e-06 7.906603e-06 3.037524e-03) (0.000000e+00 0.000000e+00 0.000000e+00))
1.700000e-02	((1.885956e+01 -4.481663e+01 3.173468e-05) (1.927827e-02 5.994214e-03 -2.390219e-05) (0.000000e+00 0.000000e+00 0.000000e+00)) ((2.136533e-03 7.557713e-03 -8.489506e+00) (-4.720706e-06 8.948483e-06 3.142678e-03) (0.000000e+00 0.000000e+00 0.000000e+00))
1.800000e-02	((2.094724e+01 -4.979037e+01 2.889253e-04) (2.003470e-02 6.133070e-03 -2.602750e-05) (0.000000e+00 0.000000e+00 0.000000e+00)) ((-1.262606e-03 7.789158e-03 -9.436576e+00) (-5.264707e-06 1.044020e-05 3.248223e-03) (0.000000e+00 0.000000e+00 0.000000e+00))
1.900000e-02	((2.309107e+01 -5.508868e+01 1.106686e-03) (2.079570e-02 6.259060e-03 -2.882316e-05) (0.000000e+00 0.000000e+00 0.000000e+00)) ((2.256133e-03 9.097710e-03 -1.042283e+01) (-5.329291e-06 1.229464e-05 3.351038e-03) (0.000000e+00 0.000000e+00 0.000000e+00))
2.000000e-02	((2.520155e+01 -6.049934e+01 1.922287e-03) (2.153926e-02 6.368763e-03 -3.181605e-05) (0.000000e+00 0.000000e+00 0.000000e+00)) ((6.006010e-03 9.435256e-03 -1.140897e+01) (-5.343682e-06 1.341388e-05 3.449303e-03) (0.000000e+00 0.000000e+00 0.000000e+00))
2.100000e-02	((2.718374e+01 -6.579141e+01 1.854770e-03) (2.224944e-02 6.459325e-03 -3.328952e-05) (0.000000e+00 0.000000e+00 0.000000e+00)) ((1.013363e-02 9.730509e-03 -1.234972e+01) (-5.929281e-06 1.392293e-05 3.543332e-03) (0.000000e+00 0.000000e+00 0.000000e+00))
2.200000e-02	((2.901325e+01 -7.086151e+01 5.743054e-04) (2.291729e-02 6.535021e-03 -3.560994e-05) (0.000000e+00 0.000000e+00 0.000000e+00)) ((8.423975e-03 8.559550e-03 -1.323153e+01) (-5.501359e-06 1.498195e-05 3.632049e-03) (0.000000e+00 0.000000e+00 0.000000e+00))
2.300000e-02	((3.082255e+01 -7.595751e+01 -6.184298e-04) (2.354995e-02 6.603904e-03 -3.889959e-05) (0.000000e+00 0.000000e+00 0.000000e+00)) ((1.108294e-02 7.035880e-03 -1.411117e+01) (-5.770694e-06 1.582216e-05 3.719057e-03) (0.000000e+00 0.000000e+00 0.000000e+00))
2.400000e-02	((3.272709e+01 -8.122629e+01 -1.692135e-03) (2.413411e-02 6.659079e-03 -4.290078e-05) (0.000000e+00 0.000000e+00 0.000000e+00)) ((1.727302e-02 6.855326e-03 -1.503301e+01) (-6.181706e-06 1.774333e-05 3.801107e-03) (0.000000e+00 0.000000e+00 0.000000e+00))
2.500000e-02	((3.487532e+01 -8.695914e+01 -2.094534e-03) (2.470655e-02 6.719482e-03 -4.658421e-05) (0.000000e+00 0.000000e+00 0.000000e+00)) ((2.462685e-02 6.533416e-03 -1.605956e+01) (-6.265140e-06 1.827509e-05 3.885880e-03) (0.000000e+00 0.000000e+00 0.000000e+00))
2.600000e-02	((3.729157e+01 -9.317153e+01 -1.915032e-03) (2.528274e-02 6.792345e-03 -5.098895e-05) (0.000000e+00 0.000000e+00 0.000000e+00)) ((2.800084e-02 5.805188e-03 -1.719817e+01) (-5.928869e-06 1.967403e-05 3.974801e-03) (0.000000e+00 0.000000e+00 0.000000e+00))
2.700000e-02	((3.999873e+01 -9.999034e+01 -2.063548e-03) (2.585860e-02 6.867563e-03 -5.531911e-05) (0.000000e+00 0.000000e+00 0.000000e+00)) ((2.925710e-02 5.036495e-03 -1.846111e+01) (-5.464855e-06 2.113531e-05 4.066061e-03) (0.000000e+00 0.000000e+00 0.000000e+00))
2.800000e-02	((4.293972e+01 -1.073343e+02 -2.766551e-03) (2.641689e-02 6.922000e-03 -6.165764e-05) (0.000000e+00 0.000000e+00 0.000000e+00)) ((3.053252e-02 6.772992e-03 -1.982453e+01) (-5.344079e-06 2.284057e-05 4.150939e-03) (0.000000e+00 0.000000e+00 0.000000e+00))
2.900000e-02	((4.602740e+01 -1.150679e+02 -4.141334e-03) (2.695297e-02 6.952297e-03 -7.054155e-05) (0.000000e+00 0.000000e+00 0.000000e+00)) ((2.466808e-02 6.382801e-03 -2.125185e+01) (-5.047444e-06 2.570068e-05 4.229135e-03) (0.000000e+00 0.000000e+00 0.000000e+00))
3.000000e-02	((4.915734e+01 -1.229425e+02 -5.661213e-03) (2.742750e-02 6.944627e-03 -7.981227e-05) (0.000000e+00 0.000000e+00 0.000000e+00)) ((2.633824e-02 9.795355e-03 -2.269523e+01) (-5.339801e-06 2.832369e-05 4.295549e-03) (0.000000e+00 0.000000e+00 0.000000e+00))
3.100000e-02	((5.223484e+01 -1.307546e+02 -6.042028e-03) (2.778361e-02 6.891397e-03 -9.023113e-05) (0.000000e+00 0.000000e+00 0.000000e+00)) ((2.212001e-02 9.205062e-03 -2.411247e+01) (-5.859944e-06 3.282728e-05 4.346501e-03) (0.000000e+00 0.000000e+00 0.000000e+00))
3.200000e-02	((5.532891e+01 -1.386068e+02 -5.934240e-03) (2.809092e-02 6.844362e-03 -9.734034e-05) (0.000000e+00 0.000000e+00 0.000000e+00)) ((1.953620e-02 8.604190e-03 -2.553533e+01) (-6.450606e-06 3.663217e-05 4.396927e-03) (0.000000e+00 0.000000e+00 0.000000e+00))
3.300000e-02	((5.845852e+01 -1.464992e+02 -5.333225e-03) (2.846464e-02 6.823138e-03 -9.969575e-05) (0.000000e+00 0.000000e+00 0.000000e+00)) ((1.618842e-02 7.557763e-03 -2.696947e+01) (-6.006595e-06 3.543883e-05 4.457852e-03) (0.000000e+00 0.000000e+00 0.000000e+00))
3.400000e-02	((6.168339e+01 -1.545366e+02 -4.292970e-03) (2.883558e-02 6.824213e-03 -9.862878e-05) (0.000000e+00 0.000000e+00 0.000000e+00)) ((1.692115e-02 7.195845e-03 -2.844055e+01) (-5.109652e-06 3.305103e-05 4.523213e-03) (0.000000e+00 0.000000e+00 0.000000e+00))
3.500000e-02	((6.508620e+01 -1.628907e+02 -3.510700e-03) (2.931926e-02 6.872482e-03 -1.037681e-04) (0.000000e+00 0.000000e+00 0.000000e+00)) ((1.624846e-02 7.697451e-03 -2.998562e+01) (-4.644781e-06 3.356618e-05 4.605811e-03) (0.000000e+00 0.000000e+00 0.000000e+00))
3.600000e-02	((6.868859e+01 -1.715898e+02 -2.428814e-03) (2.983256e-02 6.942337e-03 -1.104289e-04) (0.000000e+00 0.000000e+00 0.000000e+00)) ((1.384806e-02 7.762001e-03 -3.161231e+01) (-5.307685e-06 3.565960e-05 4.693033e-03) (0.000000e+00 0.000000e+00 0.000000e+00))
3.700000e-02	((7.246880e+01 -1.806027e+02 -1.422198e-03) (3.037591e-02 7.031260e-03 -1.094407e-04) (0.000000e+00 0.000000e+00 0.000000e+00)) ((2.300637e-03 3.571420e-03 -3.331038e+01) (-4.475843e-06 3.487594e-05 4.785961e-03) (0.000000e+00 0.000000e+00 0.000000e+00))
3.800000e-02	((7.643058e+01 -1.899306e+02 -9.486332e-04) (3.097272e-02 7.137333e-03 -1.114661e-04) (0.000000e+00 0.000000e+00 0.000000e+00)) ((-2.142090e-04 2.936176e-03 -3.508384e+01) (-6.157154e-06 3.646938e-05 4.884821e-03) (0.000000e+00 0.000000e+00 0.000000e+00))
3.900000e-02	((8.046219e+01 -1.993827e+02 -6.265567e-04) (3.163626e-02 7.263774e-03 -1.147783e-04) (0.000000e+00 0.000000e+00 0.000000e+00)) ((-1.563319e-03 1.722298e-03 -3.688316e+01) (-6.974123e-06 4.108684e-05 4.992159e-03) (0.000000e+00 0.000000e+00 0.000000e+00))
4.000000e-02	((8.461724e+01 -2.091000e+02 -7.062559e-04) (3.237414e-02 7.397851e-03 -1.202012e-04) (0.000000e+00 0.000000e+00 0.000000e+00)) ((5.850561e-03 2.546654e-03 -3.873801e+01) (-8.212223e-06 4.689700e-05 5.106906e-03) (0.000000e+00 0.000000e+00 0.000000e+00))
4.100000e-02	((8.886042e+01 -2.190105e+02 -6.589581e-04) (3.317305e-02 7.548316e-03 -1.244766e-04) (0.000000e+00 0.000000e+00 0.000000e+00)) ((1.804508e-02 4.356579e-03 -4.063594e+01) (-7.812621e-06 5.142343e-05 5.228909e-03) (0.000000e+00 0.000000e+00 0.000000e+00))
4.200000e-02	((9.318291e+01 -2.290888e+02 -2.451276e-04) (3.400838e-02 7.716823e-03 -1.199738e-04) (0.000000e+00 0.000000e+00 0.000000e+00)) ((2.764681e-02 3.845004e-03 -4.257423e+01) (-8.698862e-06 4.966294e-05 5.356474e-03) (0.000000e+00 0.000000e+00 0.000000e+00))
4.300000e-02	((9.755189e+01 -2.392428e+02 1.016075e-03) (3.486301e-02 7.907462e-03 -1.166071e-04) (0.000000e+00 0.000000e+00 0.000000e+00)) ((4.782602e-02 7.212677e-03 -4.453595e+01) (-7.686234e-06 4.650549e-05 5.488938e-03) (0.000000e+00 0.000000e+00 0.000000e+00))
4.400000e-02	((1.020096e+02 -2.495193e+02 2.140551e-03) (3.574567e-02 8.120199e-03 -1.125694e-04) (0.000000e+00 0.000000e+00 0.000000e+00)) ((5.114663e-02 3.909099e-03 -4.654032e+01) (-8.162133e-06 4.331188e-05 5.626580e-03) (0.000000e+00 0.000000e+00 0.000000e+00))
4.500000e-02	((1.065317e+02 -2.598096e+02 2.360121e-03) (3.665784e-02 8.354173e-03 -1.149419e-04) (0.000000e+00 0.000000e+00 0.000000e+00)) ((6.123764e-02 4.633998e-03 -4.857249e+01) (-6.967973e-06 4.263232e-05 5.769989e-03) (0.000000e+00 0.000000e+00 0.000000e+00))
4.600000e-02	((1.111296e+02 -2.700991e+02 2.359499e-03) (3.760498e-02 8.603578e-03 -1.249327e-04) (0.000000e+00 0.000000e+00 0.000000e+00)) ((6.611299e-02 1.251464e-03 -5.063773e+01) (-7.292976e-06 4.585048e-05 5.918195e-03) (0.000000e+00 0.000000e+00 0.000000e+00))
4.700000e-02	((1.158092e+02 -2.804462e+02 2.035955e-03) (3.858769e-02 8.875758e-03 -1.361674e-04) (0.000000e+00 0.000000e+00 0.000000e+00)) ((7.614405e-02 7.381179e-04 -5.274007e+01) (-6.548623e-06 5.077509e-05 6.072225e-03) (0.000000e+00 0.000000e+00 0.000000e+00))
4.800000e-02	((1.206375e+02 -2.909677e+02 3.011735e-03) (3.961195e-02 9.162880e-03 -1.475751e-04) (0.000000e+00 0.000000e+00 0.000000e+00)) ((8.910069e-02 -1.361953e-03 -5.491108e+01) (-7.064599e-06 5.638658e-05 6.231626e-03) (0.000000e+00 0.000000e+00 0.000000e+00))
4.900000e-02	((1.255829e+02 -3.016844e+02 4.564013e-03) (4.067366e-02 9.474525e-03 -1.583935e-04) (0.000000e+00 0.000000e+00 0.000000e+00)) ((1.177614e-01 6.057521e-03 -5.714041e+01) (-5.964216e-06 6.107221e-05 6.397799e-03) (0.000000e+00 0.000000e+00 0.000000e+00))
5.000000e-02	((1.306348e+02 -3.126416e+02 6.350774e-03) (4.176459e-02 9.793745e-03 -1.685858e-04) (0.000000e+00 0.000000e+00 0.000000e+00)) ((1.515894e-01 1.612553e-02 -5.942754e+01) (-6.664871e-06 6.682867e-05 6.567705e-03) (0.000000e+00 0.000000e+00 0.000000e+00))
5.100000e-02	((1.356548e+02 -3.236058e+02 8.240819e-03) (4.287230e-02 1.012450e-02 -1.774391e-04) (0.000000e+00 0.000000e+00 0.000000e+00)) ((1.769667e-01 2.652177e-02 -6.170976e+01) (-6.349248e-06 7.221073e-05 6.741357e-03) (0.000000e+00 0.000000e+00 0.000000e+00))
5.200000e-02	((1.406092e+02 -3.344970e+02 1.050532e-02) (4.398343e-02 1.046087e-02 -1.885645e-04) (0.000000e+00 0.000000e+00 0.000000e+00)) ((1.917329e-01 3.002366e-02 -6.397376e+01) (-6.737207e-06 7.720881e-05 6.917133e-03) (0.000000e+00 0.000000e+00 0.000000e+00))
5.300000e-02	((1.454682e+02 -3.452254e+02 1.289145e-02) (4.508283e-02 1.080969e-02 -2.008346e-04) (0.000000e+00 0.000000e+00 0.000000e+00)) ((2.075272e-01 3.700455e-02 -6.620487e+01) (-4.547210e-06 8.119281e-05 7.095393e-03) (0.000000e+00 0.000000e+00 0.000000e+00))
5.400000e-02	((1.502084e+02 -3.557405e+02 1.555323e-02) (4.616901e-02 1.116427e-02 -2.122718e-04) (0.000000e+00 0.000000e+00 0.000000e+00)) ((2.395580e-01 5.046628e-02 -6.839452e+01) (-4.417830e-06 8.506547e-05 7.275682e-03) (0.000000e+00 0.000000e+00 0.000000e+00))
5.500000e-02	((1.547631e+02 -3.658951e+02 1.802962e-02) (4.723367e-02 1.153489e-02 -2.210219e-04) (0.000000e+00 0.000000e+00 0.000000e+00)) ((2.516160e-01 5.353846e-02 -7.051119e+01) (-1.439307e-06 8.693004e-05 7.458820e-03) (0.000000e+00 0.000000e+00 0.000000e+00))
5.600000e-02	((1.591745e+02 -3.757599e+02 1.961902e-02) (4.827469e-02 1.191133e-02 -2.330242e-04) (0.000000e+00 0.000000e+00 0.000000e+00)) ((2.536373e-01 5.553193e-02 -7.257381e+01) (-2.183086e-07 8.952579e-05 7.642948e-03) (0.000000e+00 0.000000e+00 0.000000e+00))
5.700000e-02	((1.634690e+02 -3.853856e+02 2.134310e-02) (4.929153e-02 1.229990e-02 -2.432981e-04) (0.000000e+00 0.000000e+00 0.000000e+00)) ((2.489139e-01 5.557880e-02 -7.459320e+01) (1.887244e-06 9.154901e-05 7.829206e-03) (0.000000e+00 0.000000e+00 0.000000e+00))
5.800000e-02	((1.676971e+02 -3.948756e+02 2.338121e-02) (5.028333e-02 1.269105e-02 -2.541142e-04) (0.000000e+00 0.000000e+00 0.000000e+00)) ((2.428036e-01 5.625449e-02 -7.659308e+01) (1.976177e-06 9.374636e-05 8.015737e-03) (0.000000e+00 0.000000e+00 0.000000e+00))
5.900000e-02	((1.719297e+02 -4.044122e+02 2.488405e-02) (5.124827e-02 1.308695e-02 -2.646933e-04) (0.000000e+00 0.000000e+00 0.000000e+00)) ((2.290786e-01 5.309781e-02 -7.860785e+01) (4.765179e-06 9.496997e-05 8.203239e-03) (0.000000e+00 0.000000e+00 0.000000e+00))
6.000000e-02	((1.761001e+02 -4.139199e+02 2.595776e-02) (5.218308e-02 1.347727e-02 -2.690463e-04) (0.000000e+00 0.000000e+00 0.000000e+00)) ((2.175179e-01 5.038300e-02 -8.061042e+01) (5.072396e-06 9.488910e-05 8.388900e-03) (0.000000e+00 0.000000e+00 0.000000e+00))
6.100000e-02	((1.801709e+02 -4.233621e+02 2.718161e-02) (5.307649e-02 1.385459e-02 -2.753631e-04) (0.000000e+00 0.000000e+00 0.000000e+00)) ((2.053315e-01 4.550922e-02 -8.258524e+01) (7.075135e-06 9.519448e-05 8.569649e-03) (0.000000e+00 0.000000e+00 0.000000e+00))
6.200000e-02	((1.841434e+02 -4.327450e+02 2.751570e-02) (5.391408e-02 1.421271e-02 -2.773116e-04) (0.000000e+00 0.000000e+00 0.000000e+00)) ((1.914053e-01 3.984147e-02 -8.453259e+01) (7.508799e-06 9.505639e-05 8.743321e-03) (0.000000e+00 0.000000e+00 0.000000e+00))
6.300000e-02	((1.880013e+02 -4.420166e+02 2.793395e-02) (5.469362e-02 1.454665e-02 -2.774884e-04) (0.000000e+00 0.000000e+00 0.000000e+00)) ((1.824552e-01 3.462980e-02 -8.644292e+01) (9.077486e-06 9.406625e-05 8.907906e-03) (0.000000e+00 0.000000e+00 0.000000e+00))
6.400000e-02	((1.917584e+02 -4.511865e+02 2.711819e-02) (5.541193e-02 1.485515e-02 -2.713844e-04) (0.000000e+00 0.000000e+00 0.000000e+00)) ((1.710525e-01 2.633826e-02 -8.831994e+01) (1.040148e-05 9.078042e-05 9.062413e-03) (0.000000e+00 0.000000e+00 0.000000e+00))
6.500000e-02	((1.953934e+02 -4.601972e+02 2.651547e-02) (5.606891e-02 1.513892e-02 -2.652009e-04) (0.000000e+00 0.000000e+00 0.000000e+00)) ((1.586421e-01 1.768985e-02 -9.015142e+01) (1.170144e-05 8.694512e-05 9.206370e-03) (0.000000e+00 0.000000e+00 0.000000e+00))
6.600000e-02	((1.989649e+02 -4.691295e+02 2.590143e-02) (5.666325e-02 1.539776e-02 -2.628126e-04) (0.000000e+00 0.000000e+00 0.000000e+00)) ((1.446089e-01 6.694756e-03 -9.196109e+01) (1.237928e-05 8.611260e-05 9.340044e-03) (0.000000e+00 0.000000e+00 0.000000e+00))
6.700000e-02	((2.024117e+02 -4.778426e+02 2.548483e-02) (5.719312e-02 1.563493e-02 -2.580927e-04) (0.000000e+00 0.000000e+00 0.000000e+00)) ((1.277134e-01 -5.206547e-03 -9.371830e+01) (1.217390e-05 8.495627e-05 9.462665e-03) (0.000000e+00 0.000000e+00 0.000000e+00))
6.800000e-02	((2.056914e+02 -4.862288e+02 2.391683e-02) (5.766037e-02 1.584884e-02 -2.539221e-04) (0.000000e+00 0.000000e+00 0.000000e+00)) ((1.094961e-01 -1.637694e-02 -9.539972e+01) (1.387074e-05 8.227223e-05 9.574600e-03) (0.000000e+00 0.000000e+00 0.000000e+00))
6.900000e-02	((2.087990e+02 -4.942389e+02 2.300991e-02) (5.805344e-02 1.604482e-02 -2.477828e-04) (0.000000e+00 0.000000e+00 0.000000e+00)) ((8.974361e-02 -2.664878e-02 -9.699880e+01) (1.424719e-05 8.181707e-05 9.675568e-03) (0.000000e+00 0.000000e+00 0.000000e+00))
7.000000e-02	((2.117218e+02 -5.018106e+02 2.204326e-02) (5.838116e-02 1.622190e-02 -2.447852e-04) (0.000000e+00 0.000000e+00 0.000000e+00)) ((7.034853e-02 -3.711592e-02 -9.850623e+01) (1.453081e-05 8.254529e-05 9.766412e-03) (0.000000e+00 0.000000e+00 0.000000e+00))
7.100000e-02	((2.144978e+02 -5.090128e+02 2.096292e-02) (5.864837e-02 1.639134e-02 -2.381509e-04) (0.000000e+00 0.000000e+00 0.000000e+00)) ((4.607713e-02 -4.928476e-02 -9.993759e+01) (1.270022e-05 8.211175e-05 9.849698e-03) (0.000000e+00 0.000000e+00 0.000000e+00))
7.200000e-02	((2.171515e+02 -5.158793e+02 2.017209e-02) (5.885061e-02 1.654872e-02 -2.266412e-04) (0.000000e+00 0.000000e+00 0.000000e+00)) ((2.058410e-02 -6.145604e-02 -1.013034e+02) (1.225871e-05 7.728067e-05 9.924715e-03) (0.000000e+00 0.000000e+00 0.000000e+00))
7.300000e-02	((2.197348e+02 -5.225367e+02 1.926031e-02) (5.899588e-02 1.670205e-02 -2.235640e-04) (0.000000e+00 0.000000e+00 0.000000e+00)) ((-4.400128e-03 -7.357460e-02 -1.026287e+02) (1.231724e-05 7.754068e-05 9.992804e-03) (0.000000e+00 0.000000e+00 0.000000e+00))
7.400000e-02	((2.222659e+02 -5.290496e+02 1.831775e-02) (5.908281e-02 1.683770e-02 -2.179417e-04) (0.000000e+00 0.000000e+00 0.000000e+00)) ((-3.021524e-02 -8.512544e-02 -1.039243e+02) (1.100139e-05 7.515529e-05 1.005111e-02) (0.000000e+00 0.000000e+00 0.000000e+00))
7.500000e-02	((2.247382e+02 -5.353716e+02 1.928489e-02) (5.911039e-02 1.696915e-02 -2.125207e-04) (0.000000e+00 0.000000e+00 0.000000e+00)) ((-5.274480e-02 -9.445230e-02 -1.051823e+02) (1.135769e-05 7.232516e-05 1.010359e-02) (0.000000e+00 0.000000e+00 0.000000e+00))
7.600000e-02	((2.271389e+02 -5.414521e+02 2.018264e-02) (5.909929e-02 1.708740e-02 -2.111563e-04) (0.000000e+00 0.000000e+00 0.000000e+00)) ((-8.066276e-02 -1.052116e-01 -1.063932e+02) (9.174122e-06 7.103609e-05 1.014881e-02) (0.000000e+00 0.000000e+00 0.000000e+00))
7.700000e-02	((2.294589e+02 -5.472902e+02 2.094333e-02) (5.903823e-02 1.720231e-02 -2.068841e-04) (0.000000e+00 0.000000e+00 0.000000e+00)) ((-1.067271e-01 -1.159057e-01 -1.075551e+02) (9.190458e-06 6.906044e-05 1.018921e-02) (0.000000e+00 0.000000e+00 0.000000e+00))
7.800000e-02	((2.317085e+02 -5.528970e+02 2.184668e-02) (5.895405e-02 1.730742e-02 -1.963355e-04) (0.000000e+00 0.000000e+00 0.000000e+00)) ((-1.389726e-01 -1.307426e-01 -1.086713e+02) (8.525848e-06 6.139511e-05 1.022421e-02) (0.000000e+00 0.000000e+00 0.000000e+00))
7.900000e-02	((2.339220e+02 -5.583117e+02 2.407515e-02) (5.883794e-02 1.740895e-02 -1.907388e-04) (0.000000e+00 0.000000e+00 0.000000e+00)) ((-1.692105e-01 -1.456859e-01 -1.097571e+02) (8.245813e-06 5.714378e-05 1.025482e-02) (0.000000e+00 0.000000e+00 0.000000e+00))
8.000000e-02	((2.361164e+02 -5.635405e+02 2.634371e-02) (5.869219e-02 1.750810e-02 -1.825374e-04) (0.000000e+00 0.000000e+00 0.000000e+00)) ((-1.956467e-01 -1.591265e-01 -1.108179e+02) (6.841572e-06 5.655469e-05 1.028310e-02) (0.000000e+00 0.000000e+00 0.000000e+00))
8.100000e-02	((2.383280e+02 -5.686396e+02 2.962498e-02) (5.853165e-02 1.759844e-02 -1.736803e-04) (0.000000e+00 0.000000e+00 0.000000e+00)) ((-2.170787e-01 -1.698173e-01 -1.118700e+02) (5.935753e-06 5.163763e-05 1.030667e-02) (0.000000e+00 0.000000e+00 0.000000e+00))
8.200000e-02	((2.405699e+02 -5.736200e+02 3.169735e-02) (5.836609e-02 1.768376e-02 -1.649436e-04) (0.000000e+00 0.000000e+00 0.000000e+00)) ((-2.349295e-01 -1.797728e-01 -1.129189e+02) (3.600344e-06 5.153585e-05 1.032730e-02) (0.000000e+00 0.000000e+00 0.000000e+00))
8.300000e-02	((2.428801e+02 -5.785281e+02 3.371259e-02) (5.817211e-02 1.774923e-02 -1.547974e-04) (0.000000e+00 0.000000e+00 0.000000e+00)) ((-2.496937e-01 -1.899475e-01 -1.139806e+02) (1.730079e-06 4.690796e-05 1.034128e-02) (0.000000e+00 0.000000e+00 0.000000e+00))
8.400000e-02	((2.452451e+02 -5.833236e+02 3.748668e-02) (5.797030e-02 1.781450e-02 -1.507436e-04) (0.000000e+00 0.000000e+00 0.000000e+00)) ((-2.677010e-01 -2.027770e-01 -1.150485e+02) (1.546024e-06 4.209869e-05 1.035362e-02) (0.000000e+00 0.000000e+00 0.000000e+00))
8.500000e-02	((2.476211e+02 -5.879488e+02 4.408256e-02) (5.777686e-02 1.788964e-02 -1.418742e-04) (0.000000e+00 0.000000e+00 0.000000e+00)) ((-2.753254e-01 -2.110561e-01 -1.161051e+02) (-6.121555e-07 4.056315e-05 1.036671e-02) (0.000000e+00 0.000000e+00 0.000000e+00))
8.600000e-02	((2.500529e+02 -5.924927e+02 4.907092e-02) (5.758913e-02 1.796768e-02 -1.290682e-04) (0.000000e+00 0.000000e+00 0.000000e+00)) ((-2.867493e-01 -2.180775e-01 -1.171716e+02) (-2.180608e-06 3.308830e-05 1.037853e-02) (0.000000e+00 0.000000e+00 0.000000e+00))
8.700000e-02	((2.525151e+02 -5.969115e+02 5.330820e-02) (5.740280e-02 1.804567e-02 -1.168489e-04) (0.000000e+00 0.000000e+00 0.000000e+00)) ((-2.949059e-01 -2.247075e-01 -1.182371e+02) (-2.672487e-06 2.691909e-05 1.038906e-02) (0.000000e+00 0.000000e+00 0.000000e+00))
8.800000e-02	((2.549548e+02 -6.011290e+02 5.699274e-02) (5.723245e-02 1.812553e-02 -1.057993e-04) (0.000000e+00 0.000000e+00 0.000000e+00)) ((-3.039589e-01 -2.340518e-01 -1.192807e+02) (-3.773071e-06 2.197814e-05 1.040021e-02) (0.000000e+00 0.000000e+00 0.000000e+00))
8.900000e-02	((2.573077e+02 -6.050049e+02 5.946635e-02) (5.706708e-02 1.819834e-02 -8.733154e-05) (0.000000e+00 0.000000e+00 0.000000e+00)) ((-3.123821e-01 -2.439213e-01 -1.202713e+02) (-1.525180e-06 1.134315e-05 1.040862e-02) (0.000000e+00 0.000000e+00 0.000000e+00))
9.000000e-02	((2.596163e+02 -6.085772e+02 6.237554e-02) (5.692016e-02 1.827846e-02 -6.856677e-05) (0.000000e+00 0.000000e+00 0.000000e+00)) ((-3.101147e-01 -2.481261e-01 -1.212248e+02) (-1.701207e-06 1.973049e-06 1.041945e-02) (0.000000e+00 0.000000e+00 0.000000e+00))
9.100000e-02	((2.618675e+02 -6.118170e+02 6.570234e-02) (5.678119e-02 1.836097e-02 -5.219678e-05) (0.000000e+00 0.000000e+00 0.000000e+00)) ((-2.959547e-01 -2.450350e-01 -1.221339e+02) (-1.994708e-06 -3.975603e-06 1.042893e-02) (0.000000e+00 0.000000e+00 0.000000e+00))
9.200000e-02	((2.640951e+02 -6.147774e+02 6.789999e-02) (5.666253e-02 1.845135e-02 -3.474681e-05) (0.000000e+00 0.000000e+00 0.000000e+00)) ((-2.666758e-01 -2.323764e-01 -1.230149e+02) (-2.875970e-06 -1.246967e-05 1.044025e-02) (0.000000e+00 0.000000e+00 0.000000e+00))
9.300000e-02	((2.662976e+02 -6.174452e+02 6.761596e-02) (5.657054e-02 1.854763e-02 -2.331594e-05) (0.000000e+00 0.000000e+00 0.000000e+00)) ((-2.435359e-01 -2.214632e-01 -1.238679e+02) (1.917583e-07 -2.092775e-05 1.045321e-02) (0.000000e+00 0.000000e+00 0.000000e+00))
9.400000e-02	((2.684134e+02 -6.196963e+02 6.611821e-02) (5.651246e-02 1.866086e-02 -1.477319e-05) (0.000000e+00 0.000000e+00 0.000000e+00)) ((-2.296172e-01 -2.157537e-01 -1.246649e+02) (-2.041287e-07 -2.701411e-05 1.047168e-02) (0.000000e+00 0.000000e+00 0.000000e+00))
9.500000e-02	((2.704706e+02 -6.215345e+02 6.776763e-02) (5.646787e-02 1.877919e-02 -1.298607e-05) (0.000000e+00 0.000000e+00 0.000000e+00)) ((-2.084339e-01 -2.039413e-01 -1.254166e+02) (6.880699e-07 -3.430072e-05 1.049183e-02) (0.000000e+00 0.000000e+00 0.000000e+00))
9.600000e-02	((2.724477e+02 -6.228612e+02 7.017840e-02) (5.646314e-02 1.891154e-02 -5.056278e-06) (0.000000e+00 0.000000e+00 0.000000e+00)) ((-1.864640e-01 -1.897282e-01 -1.261082e+02) (1.719111e-06 -4.342132e-05 1.051794e-02) (0.000000e+00 0.000000e+00 0.000000e+00))
9.700000e-02	((2.743471e+02 -6.237186e+02 7.219273e-02) (5.647182e-02 1.904363e-02 -5.572316e-06) (0.000000e+00 0.000000e+00 0.000000e+00)) ((-1.695613e-01 -1.729647e-01 -1.267455e+02) (1.899351e-06 -4.448493e-05 1.054567e-02) (0.000000e+00 0.000000e+00 0.000000e+00))
9.800000e-02	((2.762481e+02 -6.244190e+02 6.934472e-02) (5.653040e-02 1.918981e-02 -2.566041e-06) (0.000000e+00 0.000000e+00 0.000000e+00)) ((-1.805973e-01 -1.690463e-01 -1.273758e+02) (9.793781e-07 -5.004989e-05 1.057986e-02) (0.000000e+00 0.000000e+00 0.000000e+00))
9.900000e-02	((2.780981e+02 -6.250180e+02 6.485789e-02) (5.662255e-02 1.933665e-02 -7.981449e-06) (0.000000e+00 0.000000e+00 0.000000e+00)) ((-1.907266e-01 -1.635294e-01 -1.279858e+02) (1.796915e-06 -5.237905e-05 1.061580e-02) (0.000000e+00 0.000000e+00 0.000000e+00))
1.000000e-01	((2.798692e+02 -6.256015e+02 6.185172e-02) (5.676181e-02 1.949616e-02 -1.534093e-05) (0.000000e+00 0.000000e+00 0.000000e+00)) ((-1.980262e-01 -1.588931e-01 -1.285687e+02) (2.351107e-06 -5.359091e-05 1.065764e-02) (0.000000e+00 0.000000e+00 0.000000e+00))
1.010000e-01	((2.815315e+02 -6.261436e+02 6.213642e-02) (5.693864e-02 1.966494e-02 -2.225705e-05) (0.000000e+00 0.000000e+00 0.000000e+00)) ((-1.966180e-01 -1.519141e-01 -1.291130e+02) (5.155449e-06 -6.067161e-05 1.070461e-02) (0.000000e+00 0.000000e+00 0.000000e+00))
1.020000e-01	((2.831248e+02 -6.267073e+02 6.380438e-02) (5.715555e-02 1.985635e-02 -2.864989e-05) (0.000000e+00 0.000000e+00 0.000000e+00)) ((-2.043240e-01 -1.478086e-01 -1.296335e+02) (7.366117e-06 -6.186076e-05 1.075968e-02) (0.000000e+00 0.000000e+00 0.000000e+00))
1.030000e-01	((2.846203e+02 -6.272136e+02 6.820649e-02) (5.739399e-02 2.005298e-02 -3.689864e-05) (0.000000e+00 0.000000e+00 0.000000e+00)) ((-2.049946e-01 -1.383399e-01 -1.301171e+02) (1.061790e-05 -6.324724e-05 1.081700e-02) (0.000000e+00 0.000000e+00 0.000000e+00))
1.040000e-01	((2.860621e+02 -6.277543e+02 7.108393e-02) (5.766589e-02 2.026627e-02 -3.395758e-05) (0.000000e+00 0.000000e+00 0.000000e+00)) ((-2.155997e-01 -1.325765e-01 -1.305817e+02) (1.255615e-05 -6.936037e-05 1.088074e-02) (0.000000e+00 0.000000e+00 0.000000e+00))
1.050000e-01	((2.874475e+02 -6.283211e+02 7.305608e-02) (5.797185e-02 2.049437e-02 -3.183552e-05) (0.000000e+00 0.000000e+00 0.000000e+00)) ((-2.321544e-01 -1.261358e-01 -1.310283e+02) (1.071481e-05 -6.973783e-05 1.094948e-02) (0.000000e+00 0.000000e+00 0.000000e+00))
1.060000e-01	((2.887671e+02 -6.289181e+02 7.213848e-02) (5.831036e-02 2.074413e-02 -3.131594e-05) (0.000000e+00 0.000000e+00 0.000000e+00)) ((-2.638925e-01 -1.262017e-01 -1.314536e+02) (1.194794e-05 -6.872460e-05 1.102494e-02) (0.000000e+00 0.000000e+00 0.000000e+00))
1.070000e-01	((2.899927e+02 -6.294948e+02 7.176135e-02) (5.869030e-02 2.099632e-02 -2.565705e-05) (0.000000e+00 0.000000e+00 0.000000e+00)) ((-2.907592e-01 -1.268822e-01 -1.318439e+02) (1.270266e-05 -7.213313e-05 1.110306e-02) (0.000000e+00 0.000000e+00 0.000000e+00))
1.080000e-01	((2.911503e+02 -6.301063e+02 7.103116e-02) (5.907827e-02 2.125134e-02 -2.328120e-05) (0.000000e+00 0.000000e+00 0.000000e+00)) ((-3.205360e-01 -1.309420e-01 -1.322109e+02) (1.446600e-05 -7.143449e-05 1.118198e-02) (0.000000e+00 0.000000e+00 0.000000e+00))
1.090000e-01	((2.922121e+02 -6.306799e+02 7.066482e-02) (5.949783e-02 2.152146e-02 -1.928168e-05) (0.000000e+00 0.000000e+00 0.000000e+00)) ((-3.422261e-01 -1.333630e-01 -1.325439e+02) (1.351346e-05 -7.129272e-05 1.126618e-02) (0.000000e+00 0.000000e+00 0.000000e+00))
1.100000e-01	((2.932666e+02 -6.314284e+02 6.945061e-02) (5.991437e-02 2.179119e-02 -1.349493e-05) (0.000000e+00 0.000000e+00 0.000000e+00)) ((-3.706646e-01 -1.375560e-01 -1.328874e+02) (1.326850e-05 -7.126303e-05 1.134990e-02) (0.000000e+00 0.000000e+00 0.000000e+00))
1.110000e-01	((2.943366e+02 -6.323517e+02 6.845947e-02) (6.033336e-02 2.204423e-02 -6.522414e-06) (0.000000e+00 0.000000e+00 0.000000e+00)) ((-3.952875e-01 -1.360163e-01 -1.332491e+02) (1.122125e-05 -7.099177e-05 1.143181e-02) (0.000000e+00 0.000000e+00 0.000000e+00))