0.0005 	0.456452 	-1.43597e-08 	7.12049e-11
0.0015 	0.498326 	4.73525e-08 	-5.37128e-10
0.0025 	0.336442 	9.09791e-08 	-4.92366e-10
0.0035 	0.1958 	-6.65308e-08 	8.90599e-10
0.0045 	0.41668 	-1.94336e-07 	1.50362e-09
0.0055 	0.758544 	-9.79939e-08 	5.82637e-10
0.0065 	0.848781 	5.33919e-08 	-5.35087e-10
0.0075 	0.695033 	1.13622e-07 	-8.96127e-10
0.0085 	0.50007 	6.14961e-08 	-3.26192e-10
0.0095 	0.448914 	-4.19899e-08 	4.49614e-10
0.0105 	0.559428 	-7.54793e-08 	5.51431e-10
0.0115 	0.678472 	-2.65296e-08 	1.10508e-10
0.0125 	0.695515 	2.71002e-08 	-2.66809e-10
0.0135 	0.631527 	4.15253e-08 	-3.13365e-10
0.0145 	0.562142 	2.01988e-08 	-1.014e-10
0.0155 	0.543278 	-1.12329e-08 	1.35888e-10
0.0165 	0.576171 	-2.48533e-08 	2.02906e-10
0.0175 	0.619902 	-1.60779e-08 	1.11863e-10
0.0185 	0.640249 	-1.43751e-09 	3.28235e-12
0.0195 	0.636489 	4.91429e-09 	-3.04847e-11
0.0205 	0.62736 	1.82328e-09 	2.72415e-12
0.0215 	0.627392 	-4.12028e-09 	4.7289e-11
0.0225 	0.637496 	-7.0344e-09 	6.34251e-11
0.0235 	0.650336 	-6.01762e-09 	5.12537e-11
0.0245 	0.659795 	-3.60972e-09 	3.23756e-11
0.0255 	0.665063 	-2.15608e-09 	2.2785e-11
0.0265 	0.668613 	-2.12494e-09 	2.37223e-11
0.0275 	0.672747 	-2.7303e-09 	2.8315e-11
0.0285 	0.678041 	-3.13689e-09 	3.06158e-11
0.0295 	0.68382 	-3.07605e-09 	2.93262e-11
0.0305 	0.689271 	-2.74377e-09 	2.63217e-11
0.0315 	0.694079 	-2.42392e-09 	2.3709e-11
0.0325 	0.698391 	-2.24664e-09 	2.22584e-11
0.0335 	0.702479 	-2.18009e-09 	2.15826e-11
0.0345 	0.706493 	-2.13804e-09 	2.10149e-11
0.0355 	0.710431 	-2.06774e-09 	2.02113e-11
0.0365 	0.714226 	-1.96765e-09 	1.92066e-11
0.0375 	0.717837 	-1.86006e-09 	1.81792e-11
0.0385 	0.721264 	-1.76239e-09 	1.72484e-11
0.0395 	0.724527 	-1.67802e-09 	1.64269e-11
0.0405 	0.72765 	-1.60215e-09 	1.56743e-11
0.0415 	0.730642 	-1.52989e-09 	1.49554e-11
0.0425 	0.733509 	-1.45948e-09 	1.42588e-11
0.0435 	0.736251 	-1.39128e-09 	1.35872e-11
0.0445 	0.738874 	-1.32597e-09 	1.29452e-11
0.0455 	0.741384 	-1.26386e-09 	1.23349e-11
0.0465 	0.743785 	-1.2049e-09 	1.17553e-11
0.0475 	0.746081 	-1.14886e-09 	1.12044e-11
0.0485 	0.748279 	-1.09558e-09 	1.06808e-11
0.0495 	0.750383 	-1.04489e-09 	1.0183e-11
0.0505 	0.752396 	-9.9664e-10 	9.70888e-12
0.0515 	0.754323 	-9.5065e-10 	9.25719e-12
0.0525 	0.756168 	-9.0684e-10 	8.82722e-12
0.0535 	0.757935 	-8.65132e-10 	8.418e-12
0.0545 	0.759626 	-8.25405e-10 	8.02824e-12
0.0555 	0.761246 	-7.87562e-10 	7.65726e-12
0.0565 	0.762797 	-7.51558e-10 	7.30441e-12
0.0575 	0.764282 	-7.17269e-10 	6.96824e-12
0.0585 	0.765706 	-6.8457e-10 	6.64788e-12
0.0595 	0.767069 	-6.53427e-10 	6.34299e-12
0.0605 	0.768375 	-6.23768e-10 	6.05265e-12
0.0615 	0.769627 	-5.95499e-10 	5.77584e-12
0.0625 	0.770826 	-5.68551e-10 	5.51219e-12
0.0635 	0.771976 	-5.42887e-10 	5.26123e-12
0.0645 	0.773078 	-5.18417e-10 	5.02193e-12
0.0655 	0.774134 	-4.95059e-10 	4.79361e-12
0.0665 	0.775146 	-4.72793e-10 	4.57602e-12
0.0675 	0.776117 	-4.51573e-10 	4.36876e-12
0.0685 	0.777047 	-4.31337e-10 	4.17117e-12
0.0695 	0.77794 	-4.12024e-10 	3.98261e-12
0.0705 	0.778796 	-3.93596e-10 	3.80281e-12
0.0715 	0.779617 	-3.7603e-10 	3.63149e-12
0.0725 	0.780404 	-3.59271e-10 	3.46798e-12
0.0735 	0.781159 	-3.43257e-10 	3.31184e-12
0.0745 	0.781883 	-3.27971e-10 	3.16304e-12
0.0755 	0.782578 	-3.13396e-10 	3.02102e-12
0.0765 	0.783244 	-2.99465e-10 	2.88523e-12
0.0775 	0.783883 	-2.8617e-10 	2.75588e-12
0.0785 	0.784497 	-2.73508e-10 	2.63277e-12
0.0795 	0.785086 	-2.61408e-10 	2.51498e-12
0.0805 	0.78565 	-2.4981e-10 	2.40217e-12
0.0815 	0.786192 	-2.38742e-10 	2.29464e-12
0.0825 	0.786713 	-2.28203e-10 	2.19228e-12
0.0835 	0.787212 	-2.18134e-10 	2.09451e-12
0.0845 	0.787691 	-2.085e-10 	2.00092e-12
0.0855 	0.788151 	-1.99288e-10 	1.91154e-12
0.0865 	0.788592 	-1.90505e-10 	1.82636e-12
0.0875 	0.789016 	-1.82116e-10 	1.745e-12
0.0885 	0.789423 	-1.74087e-10 	1.66721e-12
0.0895 	0.789813 	-1.66417e-10 	1.59287e-12
0.0905 	0.790188 	-1.59088e-10 	1.52186e-12
0.0915 	0.790548 	-1.52082e-10 	1.4541e-12
0.0925 	0.790893 	-1.45389e-10 	1.38934e-12
0.0935 	0.791225 	-1.38988e-10 	1.32746e-12
0.0945 	0.791543 	-1.32879e-10 	1.26843e-12
0.0955 	0.791849 	-1.27043e-10 	1.21195e-12
0.0965 	0.792142 	-1.21457e-10 	1.15798e-12
0.0975 	0.792424 	-1.1612e-10 	1.10656e-12
0.0985 	0.792694 	-1.11011e-10 	1.05726e-12
0.0995 	0.792954 	-1.06114e-10 	1.00991e-12
0.1005 	0.793204 	-1.01446e-10 	9.64981e-13
0.1015 	0.793444 	-9.70196e-11 	9.22382e-13
0.1025 	0.793674 	-9.2769e-11 	8.81346e-13
0.1035 	0.793895 	-8.86583e-11 	8.41774e-13
0.1045 	0.794107 	-8.47461e-11 	8.04179e-13
0.1055 	0.794311 	-8.1038e-11 	7.68515e-13
0.1065 	0.794506 	-7.74899e-11 	7.34359e-13
0.1075 	0.794694 	-7.40759e-11 	7.01546e-13
0.1085 	0.794875 	-7.08065e-11 	6.70153e-13
0.1095 	0.795048 	-6.76886e-11 	6.40245e-13
0.1105 	0.795214 	-6.47127e-11 	6.11713e-13
0.1115 	0.795374 	-6.1859e-11 	5.84321e-13
0.1125 	0.795528 	-5.9125e-11 	5.58109e-13
0.1135 	0.795675 	-5.65193e-11 	5.33145e-13
0.1145 	0.795817 	-5.40257e-11 	5.09288e-13
0.1155 	0.795953 	-5.16412e-11 	4.86448e-13
0.1165 	0.796083 	-4.93502e-11 	4.64541e-13
0.1175 	0.796209 	-4.7157e-11 	4.43595e-13
0.1185 	0.796329 	-4.50704e-11 	4.23645e-13
0.1195 	0.796445 	-4.30743e-11 	4.04609e-13
0.1205 	0.796556 	-4.11655e-11 	3.86374e-13
0.1215 	0.796663 	-3.93294e-11 	3.6885e-13
0.1225 	0.796765 	-3.75715e-11 	3.52066e-13
0.1235 	0.796863 	-3.58996e-11 	3.36113e-13
0.1245 	0.796958 	-3.4305e-11 	3.20992e-13
0.1255 	0.797048 	-3.27718e-11 	3.06387e-13
0.1265 	0.797135 	-3.1288e-11 	2.92219e-13
0.1275 	0.797218 	-2.9881e-11 	2.78868e-13
0.1285 	0.797298 	-2.85498e-11 	2.66263e-13
0.1295 	0.797375 	-2.72593e-11 	2.5397e-13
0.1305 	0.797449 	-2.60027e-11 	2.42035e-13
0.1315 	0.79752 	-2.48109e-11 	2.30817e-13
0.1325 	0.797588 	-2.36971e-11 	2.20248e-13
0.1335 	0.797653 	-2.26179e-11 	2.09988e-13
0.1345 	0.797715 	-2.15643e-11 	2.00066e-13
0.1355 	0.797775 	-2.05626e-11 	1.90618e-13
0.1365 	0.797832 	-1.96091e-11 	1.81599e-13
0.1375 	0.797887 	-1.86984e-11 	1.72996e-13
0.1385 	0.79794 	-1.7826e-11 	1.6478e-13
0.1395 	0.797991 	-1.69876e-11 	1.5689e-13
0.1405 	0.798039 	-1.61794e-11 	1.49265e-13
0.1415 	0.798085 	-1.53993e-11 	1.41948e-13
0.1425 	0.79813 	-1.46643e-11 	1.35035e-13
0.1435 	0.798172 	-1.39631e-11 	1.28432e-13
0.1445 	0.798213 	-1.3282e-11 	1.22074e-13
0.1455 	0.798252 	-1.26325e-11 	1.15978e-13
0.1465 	0.798289 	-1.20079e-11 	1.10125e-13
0.1475 	0.798325 	-1.14117e-11 	1.04566e-13
0.1485 	0.798359 	-1.08457e-11 	9.92403e-14
0.1495 	0.798391 	-1.02966e-11 	9.41313e-14
0.1505 	0.798422 	-9.78194e-12 	8.93515e-14
0.1515 	0.798451 	-9.2954e-12 	8.47865e-14
0.1525 	0.79848 	-8.81346e-12 	8.02871e-14
0.1535 	0.798507 	-8.35285e-12 	7.59963e-14
0.1545 	0.798532 	-7.92493e-12 	7.20296e-14
0.1555 	0.798557 	-7.51803e-12 	6.82532e-14
0.1565 	0.79858 	-7.12079e-12 	6.4541e-14
0.1575 	0.798603 	-6.73224e-12 	6.09423e-14
0.1585 	0.798624 	-6.36365e-12 	5.75892e-14
0.1595 	0.798644 	-6.02821e-12 	5.44489e-14
0.1605 	0.798663 	-5.70248e-12 	5.14082e-14
0.1615 	0.798682 	-5.37952e-12 	4.84856e-14
0.1625 	0.798699 	-5.07383e-12 	4.56469e-14
0.1635 	0.798715 	-4.78027e-12 	4.29489e-14
0.1645 	0.798731 	-4.51339e-12 	4.05164e-14
0.1655 	0.798746 	-4.26006e-12 	3.81906e-14
0.1665 	0.79876 	-4.00458e-12 	3.581e-14
0.1675 	0.798773 	-3.75379e-12 	3.35555e-14
0.1685 	0.798786 	-3.53745e-12 	3.16032e-14
0.1695 	0.798798 	-3.3403e-12 	2.97491e-14
0.1705 	0.798809 	-3.13545e-12 	2.78882e-14
0.1715 	0.79882 	-2.94085e-12 	2.61168e-14
0.1725 	0.79883 	-2.75836e-12 	2.44502e-14
0.1735 	0.798839 	-2.58923e-12 	2.29145e-14
0.1745 	0.798848 	-2.43462e-12 	2.15073e-14
0.1755 	0.798857 	-2.28409e-12 	2.01553e-14
0.1765 	0.798865 	-2.13786e-12 	1.88117e-14
0.1775 	0.798872 	-1.99737e-12 	1.75346e-14
0.1785 	0.798879 	-1.86777e-12 	1.63865e-14
0.1795 	0.798886 	-1.74792e-12 	1.52944e-14
0.1805 	0.798892 	-1.62837e-12 	1.42254e-14
0.1815 	0.798898 	-1.51323e-12 	1.32207e-14
0.1825 	0.798904 	-1.4037e-12 	1.22423e-14
0.1835 	0.798909 	-1.29789e-12 	1.13147e-14
0.1845 	0.798914 	-1.20728e-12 	1.05305e-14
0.1855 	0.798918 	-1.13103e-12 	9.83159e-15
0.1865 	0.798922 	-1.05204e-12 	9.10483e-15
0.1875 	0.798926 	-9.67388e-13 	8.36112e-15
0.1885 	0.79893 	-8.88416e-13 	7.67979e-15
0.1895 	0.798934 	-8.24178e-13 	7.1247e-15
0.1905 	0.798937 	-7.74326e-13 	6.68358e-15
0.1915 	0.79894 	-7.268e-13 	6.24669e-15
0.1925 	0.798943 	-6.70851e-13 	5.73934e-15
0.1935 	0.798945 	-6.12693e-13 	5.22776e-15
0.1945 	0.798948 	-5.65274e-13 	4.81155e-15
0.1955 	0.79895 	-5.28858e-13 	4.48606e-15
0.1965 	0.798952 	-4.92876e-13 	4.1695e-15
0.1975 	0.798954 	-4.51324e-13 	3.81449e-15
0.1985 	0.798956 	-4.08729e-13 	3.4522e-15
0.1995 	0.798958 	-3.72704e-13 	3.14093e-15
0.2005 	0.798959 	-3.45081e-13 	2.89759e-15
0.2015 	0.79896 	-3.21663e-13 	2.69038e-15
0.2025 	0.798962 	-2.98313e-13 	2.48436e-15
0.2035 	0.798963 	-2.74356e-13 	2.27255e-15
0.2045 	0.798964 	-2.50733e-13 	2.06686e-15
0.2055 	0.798965 	-2.28149e-13 	1.87943e-15
0.2065 	0.798966 	-2.0753e-13 	1.71572e-15
0.2075 	0.798967 	-1.89804e-13 	1.57227e-15
0.2085 	0.798968 	-1.74279e-13 	1.4369e-15
0.2095 	0.798969 	-1.58699e-13 	1.29833e-15
0.2105 	0.79897 	-1.41684e-13 	1.15707e-15
0.2115 	0.79897 	-1.24184e-13 	1.0225e-15
0.2125 	0.798971 	-1.08108e-13 	9.00646e-16
0.2135 	0.798971 	-9.46004e-14 	7.92354e-16
0.2145 	0.798972 	-8.42763e-14 	7.03028e-16
0.2155 	0.798972 	-7.78219e-14 	6.43127e-16
0.2165 	0.798973 	-7.50099e-14 	6.13064e-16
0.2175 	0.798973 	-7.38016e-14 	5.95696e-16
0.2185 	0.798973 	-7.19664e-14 	5.72591e-16
0.2195 	0.798974 	-6.93505e-14 	5.42301e-16
0.2205 	0.798974 	-6.68781e-14 	5.11779e-16
0.2215 	0.798974 	-6.32884e-14 	4.7369e-16
0.2225 	0.798975 	-5.52404e-14 	4.09355e-16
0.2235 	0.798975 	-4.22763e-14 	3.20874e-16
0.2245 	0.798975 	-2.99791e-14 	2.4514e-16
0.2255 	0.798975 	-2.52271e-14 	2.18364e-16
0.2265 	0.798975 	-2.80261e-14 	2.29996e-16
0.2275 	0.798975 	-3.06061e-14 	2.2963e-16
0.2285 	0.798976 	-2.61837e-14 	1.85721e-16
0.2295 	0.798976 	-1.69574e-14 	1.23565e-16
0.2305 	0.798976 	-1.10394e-14 	9.2194e-17
0.2315 	0.798976 	-1.20323e-14 	1.01649e-16
0.2325 	0.798976 	-1.46385e-14 	1.11778e-16
0.2335 	0.798976 	-1.19397e-14 	8.67218e-17
0.2345 	0.798976 	-4.83684e-15 	4.37639e-17
0.2355 	0.798976 	-1.3854e-15 	3.30471e-17
0.2365 	0.798976 	-6.80095e-15 	7.40908e-17
0.2375 	0.798976 	-1.67256e-14 	1.29187e-16
0.2385 	0.798976 	-2.19612e-14 	1.45265e-16
0.2395 	0.798976 	-1.85376e-14 	1.11142e-16
0.2405 	0.798977 	-1.10553e-14 	6.28147e-17
0.2415 	0.798977 	-6.24054e-15 	3.71084e-17
0.2425 	0.798977 	-5.42403e-15 	3.38232e-17
0.2435 	0.798977 	-4.6658e-15 	2.74325e-17
0.2445 	0.798977 	-9.84532e-16 	5.18525e-18
0.2455 	0.798977 	3.73068e-15 	-1.81381e-17
0.2465 	0.798977 	5.42498e-15 	-2.1928e-17
0.2475 	0.798977 	2.87066e-15 	-5.0849e-18
0.2485 	0.798977 	-1.3437e-15 	1.58002e-17
0.2495 	0.798977 	-4.17628e-15 	2.73874e-17
0.2505 	0.798977 	-4.99052e-15 	3.03438e-17
0.2515 	0.798977 	-4.77971e-15 	2.99534e-17
0.2525 	0.798977 	-3.9092e-15 	2.48573e-17
0.2535 	0.798977 	-1.95488e-15 	1.12087e-17
0.2545 	0.798977 	4.7763e-16 	-5.37863e-18
0.2555 	0.798977 	1.21775e-15 	-1.0035e-17
0.2565 	0.798977 	-1.21633e-15 	5.36382e-18
0.2575 	0.798977 	-5.13844e-15 	2.89095e-17
0.2585 	0.798977 	-6.45561e-15 	3.63243e-17
0.2595 	0.798977 	-2.65012e-15 	1.51099e-17
0.2605 	0.798977 	3.91965e-15 	-1.9026e-17
0.2615 	0.798977 	7.28841e-15 	-3.34751e-17
0.2625 	0.798977 	3.51831e-15 	-1.16179e-17
0.2635 	0.798977 	-4.39355e-15 	2.51039e-17
0.2645 	0.798977 	-8.26519e-15 	3.50207e-17
0.2655 	0.798977 	-3.07381e-15 	2.53238e-18
0.2665 	0.798977 	6.42688e-15 	-3.83067e-17
0.2675 	0.798977 	9.67722e-15 	-3.87163e-17
0.2685 	0.798977 	2.47079e-15 	4.40958e-18
0.2695 	0.798977 	-6.78389e-15 	3.86369e-17
0.2705 	0.798977 	-6.51523e-15 	2.00031e-17
0.2715 	0.798977 	2.60083e-15 	-2.52475e-17
0.2725 	0.798977 	6.95235e-15 	-2.95417e-17
0.2735 	0.798977 	-1.96394e-15 	2.38573e-17
0.2745 	0.798977 	-1.39615e-14 	6.97192e-17
0.2755 	0.798977 	-1.20891e-14 	4.26679e-17
0.2765 	0.798977 	3.97298e-15 	-3.47224e-17
0.2775 	0.798977 	1.63472e-14 	-7.74348e-17
0.2785 	0.798977 	1.19553e-14 	-4.05953e-17
0.2795 	0.798977 	-2.52111e-15 	3.41168e-17
0.2805 	0.798977 	-1.20847e-14 	7.13918e-17
0.2815 	0.798977 	-1.01908e-14 	3.43359e-17
0.2825 	0.798977 	1.17767e-15 	-4.38573e-17
0.2835 	0.798977 	1.43155e-14 	-8.67169e-17
0.2845 	0.798977 	1.79548e-14 	-4.09651e-17
0.2855 	0.798976 	2.16878e-15 	6.3024e-17
0.2865 	0.798976 	-2.5918e-14 	1.15943e-16
0.2875 	0.798977 	-3.47913e-14 	6.42198e-17
0.2885 	0.798978 	-1.37323e-14 	-6.056e-17
0.2895 	0.798977 	3.60113e-14 	-9.48069e-17
0.2905 	0.798976 	3.15584e-14 	-2.37051e-17
0.2915 	0.798976 	1.72501e-15 	1.14408e-16
0.2925 	0.798977 	-7.9576e-14 	1.23719e-16
0.2935 	0.798978 	-4.67411e-14 	3.76292e-17
0.2945 	0.798978 	-9.47959e-15 	-5.55433e-17
0.2955 	0.798977 	7.7618e-14 	-7.14424e-17
0.2965 	0.798976 	5.11624e-14 	-5.61789e-18
0.2975 	0.798977 	-9.39488e-15 	-2.22093e-17
0.2985 	0.798977 	6.22621e-14 	-7.53349e-17
