# Forces     
# CofR       : (0.000000e+00 0.000000e+00 0.000000e+00)
# Time       forces(pressure viscous porous) moment(pressure viscous porous)
1.000000e-03	((1.382131e+00 -2.138754e+00 -1.226211e-04) (6.106791e-03 -3.009248e-05 5.568729e-07) (0.000000e+00 0.000000e+00 0.000000e+00)) ((6.404710e-05 1.460065e-05 -5.670009e-01) (-1.814064e-07 -1.208108e-06 1.354585e-04) (0.000000e+00 0.000000e+00 0.000000e+00))
2.000000e-03	((9.330414e+00 -1.485703e+01 -6.666035e-04) (7.672114e-03 1.353097e-03 5.460537e-06) (0.000000e+00 0.000000e+00 0.000000e+00)) ((-1.020471e-03 -5.097228e-04 -3.703443e+00) (-8.581582e-07 -4.897040e-06 7.202038e-04) (0.000000e+00 0.000000e+00 0.000000e+00))
3.000000e-03	((1.600456e+01 -2.674649e+01 -7.686594e-04) (9.831017e-03 2.492931e-03 6.646399e-06) (0.000000e+00 0.000000e+00 0.000000e+00)) ((-1.087547e-03 -1.286575e-03 -6.355711e+00) (-4.527545e-06 2.783739e-06 1.189819e-03) (0.000000e+00 0.000000e+00 0.000000e+00))
4.000000e-03	((1.766465e+01 -3.097398e+01 -1.455399e-03) (1.307729e-02 4.145328e-03 4.309660e-06) (0.000000e+00 0.000000e+00 0.000000e+00)) ((5.520124e-03 -1.874990e-03 -7.036162e+00) (-5.996929e-06 4.630032e-06 1.908119e-03) (0.000000e+00 0.000000e+00 0.000000e+00))
5.000000e-03	((1.776348e+01 -3.339166e+01 -1.560382e-03) (1.607819e-02 5.430653e-03 1.067173e-05) (0.000000e+00 0.000000e+00 0.000000e+00)) ((2.042131e-02 -2.887534e-03 -7.163948e+00) (-2.318145e-06 1.999615e-05 2.541438e-03) (0.000000e+00 0.000000e+00 0.000000e+00))
6.000000e-03	((1.800138e+01 -3.662631e+01 -3.129775e-03) (1.835738e-02 6.542390e-03 5.986124e-06) (0.000000e+00 0.000000e+00 0.000000e+00)) ((4.159149e-02 -1.878701e-03 -7.433536e+00) (-2.808007e-06 1.677803e-05 3.059002e-03) (0.000000e+00 0.000000e+00 0.000000e+00))
7.000000e-03	((1.882556e+01 -4.108539e+01 -2.844542e-03) (2.006819e-02 7.226264e-03 1.194340e-06) (0.000000e+00 0.000000e+00 0.000000e+00)) ((4.894046e-02 -6.541075e-03 -7.990964e+00) (-2.504737e-07 1.337239e-05 3.391766e-03) (0.000000e+00 0.000000e+00 0.000000e+00))
8.000000e-03	((2.120414e+01 -4.802609e+01 3.461752e-04) (2.145560e-02 7.746755e-03 -3.209155e-06) (0.000000e+00 0.000000e+00 0.000000e+00)) ((4.727193e-02 -7.207145e-03 -9.192863e+00) (9.694512e-07 1.040540e-05 3.651423e-03) (0.000000e+00 0.000000e+00 0.000000e+00))
9.000000e-03	((2.468918e+01 -5.665169e+01 1.574348e-03) (2.274055e-02 8.127018e-03 -4.985852e-06) (0.000000e+00 0.000000e+00 0.000000e+00)) ((3.590793e-02 -5.289780e-03 -1.083246e+01) (2.131111e-06 6.673633e-06 3.856776e-03) (0.000000e+00 0.000000e+00 0.000000e+00))
1.000000e-02	((2.851953e+01 -6.572019e+01 1.338795e-03) (2.398879e-02 8.388039e-03 -9.747617e-06) (0.000000e+00 0.000000e+00 0.000000e+00)) ((1.879830e-02 -2.293444e-03 -1.258878e+01) (-1.259278e-06 6.576885e-06 4.033304e-03) (0.000000e+00 0.000000e+00 0.000000e+00))
1.100000e-02	((3.185021e+01 -7.389201e+01 -1.473368e-04) (2.521521e-02 8.587828e-03 -9.991084e-06) (0.000000e+00 0.000000e+00 0.000000e+00)) ((8.274225e-03 1.958803e-03 -1.412961e+01) (-2.647911e-06 4.487782e-06 4.198045e-03) (0.000000e+00 0.000000e+00 0.000000e+00))
1.200000e-02	((3.515774e+01 -8.200666e+01 -2.208796e-03) (2.645969e-02 8.749093e-03 -8.304715e-06) (0.000000e+00 0.000000e+00 0.000000e+00)) ((-4.049723e-03 4.250826e-03 -1.564482e+01) (-4.572139e-06 -6.393776e-07 4.355829e-03) (0.000000e+00 0.000000e+00 0.000000e+00))
1.300000e-02	((3.821717e+01 -8.975967e+01 -4.425708e-03) (2.769246e-02 8.892255e-03 -1.430053e-05) (0.000000e+00 0.000000e+00 0.000000e+00)) ((-7.366218e-03 5.460910e-03 -1.704911e+01) (-5.777812e-06 -1.487557e-06 4.513140e-03) (0.000000e+00 0.000000e+00 0.000000e+00))
1.400000e-02	((4.134126e+01 -9.775176e+01 -4.276431e-03) (2.892284e-02 9.078503e-03 -2.344125e-05) (0.000000e+00 0.000000e+00 0.000000e+00)) ((-2.820407e-03 4.955500e-03 -1.848289e+01) (-8.556859e-06 4.794328e-07 4.680684e-03) (0.000000e+00 0.000000e+00 0.000000e+00))
1.500000e-02	((4.499248e+01 -1.067827e+02 -6.636355e-03) (3.016656e-02 9.279084e-03 -3.236053e-05) (0.000000e+00 0.000000e+00 0.000000e+00)) ((2.141827e-03 5.565135e-03 -2.013325e+01) (-8.663653e-06 4.082977e-06 4.856904e-03) (0.000000e+00 0.000000e+00 0.000000e+00))
1.600000e-02	((4.962132e+01 -1.176992e+02 -4.637059e-03) (3.145921e-02 9.526216e-03 -4.066022e-05) (0.000000e+00 0.000000e+00 0.000000e+00)) ((9.107026e-03 5.892029e-03 -2.219210e+01) (-9.466002e-06 6.825365e-06 5.045254e-03) (0.000000e+00 0.000000e+00 0.000000e+00))
1.700000e-02	((5.517935e+01 -1.307490e+02 -2.570754e-03) (3.281215e-02 9.779915e-03 -4.119874e-05) (0.000000e+00 0.000000e+00 0.000000e+00)) ((8.795413e-03 7.213891e-03 -2.466330e+01) (-8.681828e-06 5.656133e-06 5.239683e-03) (0.000000e+00 0.000000e+00 0.000000e+00))
1.800000e-02	((6.139043e+01 -1.455631e+02 3.235309e-04) (3.423080e-02 1.003832e-02 -4.137990e-05) (0.000000e+00 0.000000e+00 0.000000e+00)) ((5.033074e-03 1.148478e-02 -2.744525e+01) (-8.473179e-06 3.802213e-06 5.437796e-03) (0.000000e+00 0.000000e+00 0.000000e+00))
1.900000e-02	((6.775082e+01 -1.612402e+02 2.912045e-03) (3.569061e-02 1.027787e-02 -3.590342e-05) (0.000000e+00 0.000000e+00 0.000000e+00)) ((8.675068e-03 2.135278e-02 -3.033211e+01) (-6.808842e-06 5.082298e-07 5.633723e-03) (0.000000e+00 0.000000e+00 0.000000e+00))
2.000000e-02	((7.397710e+01 -1.772270e+02 5.192267e-03) (3.713170e-02 1.048595e-02 -3.509002e-05) (0.000000e+00 0.000000e+00 0.000000e+00)) ((1.482822e-02 2.794197e-02 -3.320234e+01) (-6.144800e-06 -2.205248e-06 5.820762e-03) (0.000000e+00 0.000000e+00 0.000000e+00))
2.100000e-02	((7.979589e+01 -1.928568e+02 5.017618e-03) (3.850150e-02 1.064243e-02 -3.775500e-05) (0.000000e+00 0.000000e+00 0.000000e+00)) ((2.419738e-02 3.048295e-02 -3.593403e+01) (-5.372285e-06 -4.456540e-06 5.992040e-03) (0.000000e+00 0.000000e+00 0.000000e+00))
2.200000e-02	((8.518043e+01 -2.078929e+02 2.557651e-03) (3.978559e-02 1.077245e-02 -3.938070e-05) (0.000000e+00 0.000000e+00 0.000000e+00)) ((3.134549e-02 2.682207e-02 -3.850974e+01) (-4.433659e-06 -6.934719e-06 6.153244e-03) (0.000000e+00 0.000000e+00 0.000000e+00))
2.300000e-02	((9.041695e+01 -2.226862e+02 -2.851430e-03) (4.104101e-02 1.094008e-02 -4.598517e-05) (0.000000e+00 0.000000e+00 0.000000e+00)) ((4.136065e-02 2.356074e-02 -4.103011e+01) (-3.395970e-06 -6.848989e-06 6.327409e-03) (0.000000e+00 0.000000e+00 0.000000e+00))
2.400000e-02	((9.593126e+01 -2.380616e+02 -6.265458e-03) (4.226166e-02 1.112649e-02 -5.395640e-05) (0.000000e+00 0.000000e+00 0.000000e+00)) ((3.862673e-02 1.383322e-02 -4.368208e+01) (-2.471125e-06 -8.409975e-06 6.505738e-03) (0.000000e+00 0.000000e+00 0.000000e+00))
2.500000e-02	((1.022186e+02 -2.548938e+02 -8.766069e-03) (4.347499e-02 1.133370e-02 -6.303678e-05) (0.000000e+00 0.000000e+00 0.000000e+00)) ((4.736400e-02 7.642708e-03 -4.666807e+01) (6.493522e-08 -8.227063e-06 6.691242e-03) (0.000000e+00 0.000000e+00 0.000000e+00))
2.600000e-02	((1.095049e+02 -2.737199e+02 -8.772024e-03) (4.467383e-02 1.153934e-02 -7.346233e-05) (0.000000e+00 0.000000e+00 0.000000e+00)) ((5.080870e-02 -3.256614e-03 -5.008811e+01) (3.480692e-06 -8.640550e-06 6.877035e-03) (0.000000e+00 0.000000e+00 0.000000e+00))
2.700000e-02	((1.175981e+02 -2.942669e+02 -6.650126e-03) (4.585201e-02 1.171957e-02 -8.417435e-05) (0.000000e+00 0.000000e+00 0.000000e+00)) ((5.109941e-02 -1.536943e-02 -5.385200e+01) (6.181530e-06 -9.290951e-06 7.056547e-03) (0.000000e+00 0.000000e+00 0.000000e+00))
2.800000e-02	((1.262898e+02 -3.162007e+02 -3.802972e-03) (4.704413e-02 1.189308e-02 -9.213454e-05) (0.000000e+00 0.000000e+00 0.000000e+00)) ((3.553179e-02 -2.952817e-02 -5.787385e+01) (8.771652e-06 -1.020366e-05 7.236666e-03) (0.000000e+00 0.000000e+00 0.000000e+00))
2.900000e-02	((1.353922e+02 -3.392436e+02 6.939899e-04) (4.820033e-02 1.202546e-02 -1.015545e-04) (0.000000e+00 0.000000e+00 0.000000e+00)) ((2.978306e-02 -3.975396e-02 -6.207526e+01) (9.566205e-06 -1.146854e-05 7.406102e-03) (0.000000e+00 0.000000e+00 0.000000e+00))
3.000000e-02	((1.446697e+02 -3.629471e+02 5.877087e-03) (4.931708e-02 1.213570e-02 -1.076227e-04) (0.000000e+00 0.000000e+00 0.000000e+00)) ((2.971669e-02 -4.649545e-02 -6.636358e+01) (1.091668e-05 -1.396171e-05 7.569075e-03) (0.000000e+00 0.000000e+00 0.000000e+00))
3.100000e-02	((1.539421e+02 -3.868308e+02 8.960067e-03) (5.025123e-02 1.216807e-02 -1.031650e-04) (0.000000e+00 0.000000e+00 0.000000e+00)) ((2.818998e-02 -5.104640e-02 -7.064669e+01) (1.213940e-05 -2.134815e-05 7.706900e-03) (0.000000e+00 0.000000e+00 0.000000e+00))
3.200000e-02	((1.631720e+02 -4.107302e+02 1.037827e-02) (5.111343e-02 1.220686e-02 -9.444670e-05) (0.000000e+00 0.000000e+00 0.000000e+00)) ((6.021399e-03 -5.921638e-02 -7.491859e+01) (1.286975e-05 -2.679401e-05 7.842894e-03) (0.000000e+00 0.000000e+00 0.000000e+00))
3.300000e-02	((1.725345e+02 -4.347622e+02 1.016963e-02) (5.196371e-02 1.224985e-02 -8.373187e-05) (0.000000e+00 0.000000e+00 0.000000e+00)) ((-2.031753e-02 -6.694834e-02 -7.923671e+01) (1.243460e-05 -3.253947e-05 7.981950e-03) (0.000000e+00 0.000000e+00 0.000000e+00))
3.400000e-02	((1.822739e+02 -4.594383e+02 6.177049e-03) (5.278202e-02 1.231126e-02 -6.741093e-05) (0.000000e+00 0.000000e+00 0.000000e+00)) ((-6.581887e-02 -7.807439e-02 -8.372543e+01) (1.236107e-05 -4.013328e-05 8.121944e-03) (0.000000e+00 0.000000e+00 0.000000e+00))
3.500000e-02	((1.926082e+02 -4.851938e+02 5.040999e-03) (5.372200e-02 1.243047e-02 -6.213923e-05) (0.000000e+00 0.000000e+00 0.000000e+00)) ((-1.203410e-01 -1.007905e-01 -8.846714e+01) (1.082440e-05 -4.031893e-05 8.283457e-03) (0.000000e+00 0.000000e+00 0.000000e+00))
3.600000e-02	((2.035739e+02 -5.122729e+02 6.923004e-03) (5.482164e-02 1.261180e-02 -5.348395e-05) (0.000000e+00 0.000000e+00 0.000000e+00)) ((-1.664001e-01 -1.209298e-01 -9.349211e+01) (9.628333e-06 -4.798622e-05 8.466212e-03) (0.000000e+00 0.000000e+00 0.000000e+00))
3.700000e-02	((2.149474e+02 -5.400224e+02 1.026731e-02) (5.593422e-02 1.281401e-02 -4.391940e-05) (0.000000e+00 0.000000e+00 0.000000e+00)) ((-1.982223e-01 -1.385001e-01 -9.867335e+01) (7.164017e-06 -5.335211e-05 8.653813e-03) (0.000000e+00 0.000000e+00 0.000000e+00))
3.800000e-02	((2.267159e+02 -5.685308e+02 1.337285e-02) (5.702776e-02 1.306581e-02 -4.100237e-05) (0.000000e+00 0.000000e+00 0.000000e+00)) ((-2.577944e-01 -1.622729e-01 -1.040253e+02) (6.474564e-06 -5.600861e-05 8.844324e-03) (0.000000e+00 0.000000e+00 0.000000e+00))
3.900000e-02	((2.389857e+02 -5.979140e+02 1.754275e-02) (5.827059e-02 1.330251e-02 -3.550919e-05) (0.000000e+00 0.000000e+00 0.000000e+00)) ((-2.967186e-01 -1.789073e-01 -1.095846e+02) (6.972775e-06 -6.332993e-05 9.049532e-03) (0.000000e+00 0.000000e+00 0.000000e+00))
4.000000e-02	((2.515958e+02 -6.279551e+02 1.968381e-02) (5.955835e-02 1.357980e-02 -2.379505e-05) (0.000000e+00 0.000000e+00 0.000000e+00)) ((-2.990792e-01 -1.797447e-01 -1.152952e+02) (4.170985e-06 -7.336224e-05 9.261620e-03) (0.000000e+00 0.000000e+00 0.000000e+00))
4.100000e-02	((2.645033e+02 -6.583943e+02 1.852490e-02) (6.092174e-02 1.386868e-02 -1.644385e-05) (0.000000e+00 0.000000e+00 0.000000e+00)) ((-2.782115e-01 -1.742008e-01 -1.211270e+02) (3.557441e-06 -7.853598e-05 9.482839e-03) (0.000000e+00 0.000000e+00 0.000000e+00))
4.200000e-02	((2.777353e+02 -6.895376e+02 1.263613e-02) (6.233481e-02 1.419433e-02 -1.352484e-05) (0.000000e+00 0.000000e+00 0.000000e+00)) ((-2.396526e-01 -1.519951e-01 -1.271241e+02) (2.547276e-06 -8.178895e-05 9.710257e-03) (0.000000e+00 0.000000e+00 0.000000e+00))
4.300000e-02	((2.912408e+02 -7.210221e+02 1.010476e-02) (6.380450e-02 1.454026e-02 -1.198177e-05) (0.000000e+00 0.000000e+00 0.000000e+00)) ((-1.785286e-01 -1.391573e-01 -1.332365e+02) (5.072513e-06 -8.180576e-05 9.946124e-03) (0.000000e+00 0.000000e+00 0.000000e+00))
4.400000e-02	((3.049618e+02 -7.528275e+02 5.206475e-03) (6.531803e-02 1.493753e-02 -1.352584e-05) (0.000000e+00 0.000000e+00 0.000000e+00)) ((-1.519711e-01 -1.285629e-01 -1.394600e+02) (5.561029e-06 -7.970315e-05 1.019079e-02) (0.000000e+00 0.000000e+00 0.000000e+00))
4.500000e-02	((3.190060e+02 -7.849961e+02 5.044653e-03) (6.685374e-02 1.534598e-02 -9.288621e-06) (0.000000e+00 0.000000e+00 0.000000e+00)) ((-9.746719e-02 -1.253966e-01 -1.458271e+02) (8.970102e-06 -8.092286e-05 1.043972e-02) (0.000000e+00 0.000000e+00 0.000000e+00))
4.600000e-02	((3.333078e+02 -8.174559e+02 2.550959e-03) (6.843477e-02 1.579256e-02 -1.975174e-05) (0.000000e+00 0.000000e+00 0.000000e+00)) ((-7.538128e-02 -1.252890e-01 -1.523260e+02) (8.848785e-06 -7.922680e-05 1.069544e-02) (0.000000e+00 0.000000e+00 0.000000e+00))
4.700000e-02	((3.477088e+02 -8.497301e+02 1.140668e-03) (7.007849e-02 1.625633e-02 -2.840996e-05) (0.000000e+00 0.000000e+00 0.000000e+00)) ((-1.958278e-02 -1.122151e-01 -1.588583e+02) (1.075697e-05 -7.634398e-05 1.096109e-02) (0.000000e+00 0.000000e+00 0.000000e+00))
4.800000e-02	((3.623622e+02 -8.821149e+02 -2.567871e-03) (7.177381e-02 1.674770e-02 -3.792510e-05) (0.000000e+00 0.000000e+00 0.000000e+00)) ((1.719992e-02 -9.802202e-02 -1.655058e+02) (8.120779e-06 -7.467348e-05 1.123359e-02) (0.000000e+00 0.000000e+00 0.000000e+00))
4.900000e-02	((3.772112e+02 -9.145138e+02 -6.180885e-03) (7.351998e-02 1.727317e-02 -4.957452e-05) (0.000000e+00 0.000000e+00 0.000000e+00)) ((6.731331e-02 -7.588397e-02 -1.722361e+02) (1.018227e-05 -7.072533e-05 1.151677e-02) (0.000000e+00 0.000000e+00 0.000000e+00))
5.000000e-02	((3.921239e+02 -9.468794e+02 -9.004711e-03) (7.532397e-02 1.783684e-02 -6.025077e-05) (0.000000e+00 0.000000e+00 0.000000e+00)) ((8.322021e-02 -5.936989e-02 -1.790053e+02) (6.452181e-06 -6.814404e-05 1.181092e-02) (0.000000e+00 0.000000e+00 0.000000e+00))
5.100000e-02	((4.071779e+02 -9.795114e+02 -9.248825e-03) (7.716311e-02 1.841847e-02 -6.871531e-05) (0.000000e+00 0.000000e+00 0.000000e+00)) ((8.252271e-02 -4.673093e-02 -1.858579e+02) (8.348421e-06 -6.708168e-05 1.211127e-02) (0.000000e+00 0.000000e+00 0.000000e+00))
5.200000e-02	((4.222860e+02 -1.012338e+03 -1.050968e-02) (7.902153e-02 1.902511e-02 -7.709714e-05) (0.000000e+00 0.000000e+00 0.000000e+00)) ((9.318444e-02 -2.017888e-02 -1.927661e+02) (5.415902e-06 -6.692376e-05 1.241762e-02) (0.000000e+00 0.000000e+00 0.000000e+00))
5.300000e-02	((4.373178e+02 -1.045218e+03 -1.215651e-02) (8.086663e-02 1.964481e-02 -8.544212e-05) (0.000000e+00 0.000000e+00 0.000000e+00)) ((1.120526e-01 1.913292e-02 -1.996768e+02) (9.415250e-06 -6.796415e-05 1.272743e-02) (0.000000e+00 0.000000e+00 0.000000e+00))
5.400000e-02	((4.520384e+02 -1.077656e+03 -1.511761e-02) (8.267874e-02 2.026978e-02 -9.640112e-05) (0.000000e+00 0.000000e+00 0.000000e+00)) ((1.254735e-01 6.368530e-02 -2.064855e+02) (7.442142e-06 -6.847813e-05 1.303746e-02) (0.000000e+00 0.000000e+00 0.000000e+00))
5.500000e-02	((4.662697e+02 -1.109223e+03 -2.034673e-02) (8.444255e-02 2.089929e-02 -1.124159e-04) (0.000000e+00 0.000000e+00 0.000000e+00)) ((1.475981e-01 1.165250e-01 -2.131070e+02) (1.206798e-05 -6.828718e-05 1.334769e-02) (0.000000e+00 0.000000e+00 0.000000e+00))
5.600000e-02	((4.799764e+02 -1.139758e+03 -2.517421e-02) (8.614922e-02 2.153445e-02 -1.264184e-04) (0.000000e+00 0.000000e+00 0.000000e+00)) ((1.745701e-01 1.671099e-01 -2.195239e+02) (8.531641e-06 -6.851458e-05 1.365710e-02) (0.000000e+00 0.000000e+00 0.000000e+00))
5.700000e-02	((4.930503e+02 -1.168942e+03 -2.532733e-02) (8.778926e-02 2.216995e-02 -1.493568e-04) (0.000000e+00 0.000000e+00 0.000000e+00)) ((2.325836e-01 2.247953e-01 -2.256815e+02) (9.977503e-06 -6.430381e-05 1.396454e-02) (0.000000e+00 0.000000e+00 0.000000e+00))
5.800000e-02	((5.056007e+02 -1.196988e+03 -2.205999e-02) (8.937890e-02 2.281922e-02 -1.566950e-04) (0.000000e+00 0.000000e+00 0.000000e+00)) ((2.705759e-01 2.701874e-01 -2.316267e+02) (6.487170e-06 -6.642785e-05 1.427208e-02) (0.000000e+00 0.000000e+00 0.000000e+00))
5.900000e-02	((5.179264e+02 -1.224582e+03 -1.488428e-02) (9.091076e-02 2.347326e-02 -1.652931e-04) (0.000000e+00 0.000000e+00 0.000000e+00)) ((2.458065e-01 2.804507e-01 -2.374969e+02) (1.154836e-05 -6.958970e-05 1.458045e-02) (0.000000e+00 0.000000e+00 0.000000e+00))
6.000000e-02	((5.301774e+02 -1.252035e+03 -4.436580e-03) (9.238226e-02 2.411617e-02 -1.559494e-04) (0.000000e+00 0.000000e+00 0.000000e+00)) ((1.958769e-01 2.748374e-01 -2.433618e+02) (7.678415e-06 -7.587382e-05 1.488291e-02) (0.000000e+00 0.000000e+00 0.000000e+00))
6.100000e-02	((5.422665e+02 -1.279362e+03 2.766489e-03) (9.377991e-02 2.474550e-02 -1.493687e-04) (0.000000e+00 0.000000e+00 0.000000e+00)) ((1.078754e-01 2.396385e-01 -2.491900e+02) (1.027141e-05 -8.035423e-05 1.517905e-02) (0.000000e+00 0.000000e+00 0.000000e+00))
6.200000e-02	((5.541449e+02 -1.306498e+03 5.679849e-03) (9.509551e-02 2.534357e-02 -1.385502e-04) (0.000000e+00 0.000000e+00 0.000000e+00)) ((-8.844962e-03 1.802681e-01 -2.549607e+02) (5.990800e-06 -8.713670e-05 1.546115e-02) (0.000000e+00 0.000000e+00 0.000000e+00))
6.300000e-02	((5.657843e+02 -1.333417e+03 6.622896e-03) (9.632202e-02 2.590574e-02 -1.274657e-04) (0.000000e+00 0.000000e+00 0.000000e+00)) ((-1.042374e-01 1.227130e-01 -2.606610e+02) (1.171006e-05 -9.454099e-05 1.572888e-02) (0.000000e+00 0.000000e+00 0.000000e+00))
6.400000e-02	((5.772147e+02 -1.360159e+03 6.218617e-03) (9.746189e-02 2.642027e-02 -1.099102e-04) (0.000000e+00 0.000000e+00 0.000000e+00)) ((-2.100862e-01 5.897055e-02 -2.662999e+02) (7.771176e-06 -1.026415e-04 1.597900e-02) (0.000000e+00 0.000000e+00 0.000000e+00))
6.500000e-02	((5.883280e+02 -1.386560e+03 7.732416e-03) (9.850049e-02 2.689668e-02 -1.077896e-04) (0.000000e+00 0.000000e+00 0.000000e+00)) ((-2.744847e-01 1.325754e-02 -2.718259e+02) (1.483216e-05 -1.065626e-04 1.621253e-02) (0.000000e+00 0.000000e+00 0.000000e+00))
6.600000e-02	((5.990385e+02 -1.412414e+03 8.478170e-03) (9.943956e-02 2.731850e-02 -1.016153e-04) (0.000000e+00 0.000000e+00 0.000000e+00)) ((-3.115508e-01 -1.083218e-02 -2.771916e+02) (1.560812e-05 -1.121668e-04 1.642530e-02) (0.000000e+00 0.000000e+00 0.000000e+00))
6.700000e-02	((6.092916e+02 -1.437581e+03 1.370257e-02) (1.002874e-01 2.770487e-02 -1.046136e-04) (0.000000e+00 0.000000e+00 0.000000e+00)) ((-3.046502e-01 -1.468246e-02 -2.823645e+02) (2.129681e-05 -1.124871e-04 1.662237e-02) (0.000000e+00 0.000000e+00 0.000000e+00))
6.800000e-02	((6.189438e+02 -1.461690e+03 2.085859e-02) (1.010183e-01 2.804324e-02 -1.054535e-04) (0.000000e+00 0.000000e+00 0.000000e+00)) ((-2.767698e-01 -9.479676e-03 -2.872692e+02) (2.108274e-05 -1.115721e-04 1.679783e-02) (0.000000e+00 0.000000e+00 0.000000e+00))
6.900000e-02	((6.279750e+02 -1.484613e+03 3.318287e-02) (1.016356e-01 2.836039e-02 -1.049476e-04) (0.000000e+00 0.000000e+00 0.000000e+00)) ((-2.487254e-01 -1.051941e-02 -2.918876e+02) (2.548141e-05 -1.064410e-04 1.696035e-02) (0.000000e+00 0.000000e+00 0.000000e+00))
7.000000e-02	((6.363809e+02 -1.506198e+03 4.621706e-02) (1.021438e-01 2.864654e-02 -9.616693e-05) (0.000000e+00 0.000000e+00 0.000000e+00)) ((-2.647707e-01 -4.072176e-02 -2.962051e+02) (2.893712e-05 -1.103121e-04 1.710529e-02) (0.000000e+00 0.000000e+00 0.000000e+00))
7.100000e-02	((6.443166e+02 -1.526608e+03 5.315722e-02) (1.025376e-01 2.891989e-02 -7.742332e-05) (0.000000e+00 0.000000e+00 0.000000e+00)) ((-3.359774e-01 -1.041113e-01 -3.002807e+02) (3.327717e-05 -1.158839e-04 1.723781e-02) (0.000000e+00 0.000000e+00 0.000000e+00))
7.200000e-02	((6.519229e+02 -1.546104e+03 5.332535e-02) (1.028089e-01 2.916501e-02 -7.255927e-05) (0.000000e+00 0.000000e+00 0.000000e+00)) ((-4.569176e-01 -1.842502e-01 -3.041745e+02) (3.760404e-05 -1.200596e-04 1.735322e-02) (0.000000e+00 0.000000e+00 0.000000e+00))
7.300000e-02	((6.593271e+02 -1.564990e+03 5.404223e-02) (1.030018e-01 2.941230e-02 -6.009525e-05) (0.000000e+00 0.000000e+00 0.000000e+00)) ((-5.618996e-01 -2.527636e-01 -3.079479e+02) (4.245182e-05 -1.245241e-04 1.746091e-02) (0.000000e+00 0.000000e+00 0.000000e+00))
7.400000e-02	((6.665600e+02 -1.583361e+03 5.097685e-02) (1.030909e-01 2.964493e-02 -5.407624e-05) (0.000000e+00 0.000000e+00 0.000000e+00)) ((-6.614995e-01 -3.103525e-01 -3.116145e+02) (4.574720e-05 -1.308859e-04 1.755808e-02) (0.000000e+00 0.000000e+00 0.000000e+00))
7.500000e-02	((6.735598e+02 -1.601067e+03 5.367799e-02) (1.031057e-01 2.986763e-02 -3.371158e-05) (0.000000e+00 0.000000e+00 0.000000e+00)) ((-7.231908e-01 -3.507997e-01 -3.151386e+02) (4.958466e-05 -1.398237e-04 1.764535e-02) (0.000000e+00 0.000000e+00 0.000000e+00))
7.600000e-02	((6.803417e+02 -1.618182e+03 5.812970e-02) (1.030739e-01 3.009315e-02 -1.688833e-05) (0.000000e+00 0.000000e+00 0.000000e+00)) ((-7.802857e-01 -3.857338e-01 -3.185304e+02) (4.935275e-05 -1.462831e-04 1.772897e-02) (0.000000e+00 0.000000e+00 0.000000e+00))
7.700000e-02	((6.866909e+02 -1.634234e+03 6.074047e-02) (1.029604e-01 3.031140e-02 6.893125e-06) (0.000000e+00 0.000000e+00 0.000000e+00)) ((-8.289646e-01 -4.209511e-01 -3.216898e+02) (4.888991e-05 -1.542397e-04 1.780441e-02) (0.000000e+00 0.000000e+00 0.000000e+00))
7.800000e-02	((6.928156e+02 -1.649476e+03 6.329979e-02) (1.028148e-01 3.052869e-02 3.036461e-05) (0.000000e+00 0.000000e+00 0.000000e+00)) ((-8.845432e-01 -4.606233e-01 -3.247025e+02) (5.282315e-05 -1.623737e-04 1.787531e-02) (0.000000e+00 0.000000e+00 0.000000e+00))
7.900000e-02	((6.988183e+02 -1.664006e+03 6.368839e-02) (1.026328e-01 3.073935e-02 5.521991e-05) (0.000000e+00 0.000000e+00 0.000000e+00)) ((-9.456181e-01 -5.041075e-01 -3.276119e+02) (5.581420e-05 -1.751842e-04 1.794047e-02) (0.000000e+00 0.000000e+00 0.000000e+00))
8.000000e-02	((7.049112e+02 -1.678136e+03 5.894224e-02) (1.024041e-01 3.094186e-02 6.634377e-05) (0.000000e+00 0.000000e+00 0.000000e+00)) ((-1.014262e+00 -5.510139e-01 -3.305083e+02) (5.446302e-05 -1.750284e-04 1.799935e-02) (0.000000e+00 0.000000e+00 0.000000e+00))
8.100000e-02	((7.111385e+02 -1.691921e+03 5.363158e-02) (1.021305e-01 3.114414e-02 7.356420e-05) (0.000000e+00 0.000000e+00 0.000000e+00)) ((-1.092317e+00 -6.030732e-01 -3.334136e+02) (5.330227e-05 -1.741726e-04 1.805334e-02) (0.000000e+00 0.000000e+00 0.000000e+00))
8.200000e-02	((7.175742e+02 -1.705536e+03 4.823204e-02) (1.018788e-01 3.135817e-02 9.059339e-05) (0.000000e+00 0.000000e+00 0.000000e+00)) ((-1.160339e+00 -6.474836e-01 -3.363647e+02) (5.352408e-05 -1.805166e-04 1.810959e-02) (0.000000e+00 0.000000e+00 0.000000e+00))
8.300000e-02	((7.241892e+02 -1.718942e+03 4.597989e-02) (1.015876e-01 3.154376e-02 1.045631e-04) (0.000000e+00 0.000000e+00 0.000000e+00)) ((-1.208462e+00 -6.840593e-01 -3.393479e+02) (5.334706e-05 -1.823001e-04 1.815510e-02) (0.000000e+00 0.000000e+00 0.000000e+00))
8.400000e-02	((7.311227e+02 -1.732383e+03 4.218284e-02) (1.013268e-01 3.174009e-02 1.269826e-04) (0.000000e+00 0.000000e+00 0.000000e+00)) ((-1.234738e+00 -7.042132e-01 -3.424213e+02) (5.223501e-05 -1.922447e-04 1.820245e-02) (0.000000e+00 0.000000e+00 0.000000e+00))
8.500000e-02	((7.382993e+02 -1.745739e+03 3.969734e-02) (1.010588e-01 3.193498e-02 1.371968e-04) (0.000000e+00 0.000000e+00 0.000000e+00)) ((-1.268664e+00 -7.297850e-01 -3.455569e+02) (4.827294e-05 -1.886759e-04 1.824670e-02) (0.000000e+00 0.000000e+00 0.000000e+00))
8.600000e-02	((7.456642e+02 -1.758910e+03 3.288968e-02) (1.008087e-01 3.214480e-02 1.605477e-04) (0.000000e+00 0.000000e+00 0.000000e+00)) ((-1.307886e+00 -7.562185e-01 -3.487328e+02) (4.830784e-05 -1.954701e-04 1.829199e-02) (0.000000e+00 0.000000e+00 0.000000e+00))
8.700000e-02	((7.530101e+02 -1.771671e+03 3.505191e-02) (1.005669e-01 3.236534e-02 1.770794e-04) (0.000000e+00 0.000000e+00 0.000000e+00)) ((-1.325246e+00 -7.779362e-01 -3.518724e+02) (4.848884e-05 -1.971165e-04 1.833599e-02) (0.000000e+00 0.000000e+00 0.000000e+00))
8.800000e-02	((7.603061e+02 -1.783928e+03 2.622546e-02) (1.003519e-01 3.258802e-02 1.969594e-04) (0.000000e+00 0.000000e+00 0.000000e+00)) ((-1.357497e+00 -8.094126e-01 -3.549589e+02) (4.895811e-05 -2.008533e-04 1.838099e-02) (0.000000e+00 0.000000e+00 0.000000e+00))
8.900000e-02	((7.674139e+02 -1.795354e+03 1.641002e-02) (1.001601e-01 3.280155e-02 2.212634e-04) (0.000000e+00 0.000000e+00 0.000000e+00)) ((-1.374029e+00 -8.264059e-01 -3.579251e+02) (5.280197e-05 -2.106928e-04 1.842169e-02) (0.000000e+00 0.000000e+00 0.000000e+00))
9.000000e-02	((7.743839e+02 -1.805908e+03 -1.943613e-03) (9.999719e-02 3.302446e-02 2.398830e-04) (0.000000e+00 0.000000e+00 0.000000e+00)) ((-1.420471e+00 -8.616777e-01 -3.607809e+02) (5.432479e-05 -2.179649e-04 1.846582e-02) (0.000000e+00 0.000000e+00 0.000000e+00))
9.100000e-02	((7.813259e+02 -1.815760e+03 -6.255228e-03) (9.983148e-02 3.323466e-02 2.520098e-04) (0.000000e+00 0.000000e+00 0.000000e+00)) ((-1.375200e+00 -8.392599e-01 -3.635750e+02) (5.737973e-05 -2.216608e-04 1.850425e-02) (0.000000e+00 0.000000e+00 0.000000e+00))
9.200000e-02	((7.880277e+02 -1.824545e+03 -2.593718e-02) (9.969699e-02 3.344877e-02 2.658310e-04) (0.000000e+00 0.000000e+00 0.000000e+00)) ((-1.373215e+00 -8.280773e-01 -3.662132e+02) (5.873857e-05 -2.314964e-04 1.854475e-02) (0.000000e+00 0.000000e+00 0.000000e+00))
9.300000e-02	((7.943421e+02 -1.831984e+03 -3.558220e-02) (9.960211e-02 3.366478e-02 2.703502e-04) (0.000000e+00 0.000000e+00 0.000000e+00)) ((-1.329114e+00 -7.868592e-01 -3.686357e+02) (5.764389e-05 -2.357311e-04 1.858566e-02) (0.000000e+00 0.000000e+00 0.000000e+00))
9.400000e-02	((8.003266e+02 -1.837991e+03 -4.161404e-02) (9.955523e-02 3.389306e-02 2.738103e-04) (0.000000e+00 0.000000e+00 0.000000e+00)) ((-1.260777e+00 -7.293360e-01 -3.708557e+02) (5.566414e-05 -2.421253e-04 1.863240e-02) (0.000000e+00 0.000000e+00 0.000000e+00))
9.500000e-02	((8.061585e+02 -1.842854e+03 -3.602022e-02) (9.953008e-02 3.412581e-02 2.727747e-04) (0.000000e+00 0.000000e+00 0.000000e+00)) ((-1.118204e+00 -6.367218e-01 -3.729548e+02) (5.200752e-05 -2.426620e-04 1.868020e-02) (0.000000e+00 0.000000e+00 0.000000e+00))
9.600000e-02	((8.120273e+02 -1.847057e+03 -3.175680e-02) (9.956415e-02 3.437620e-02 2.763827e-04) (0.000000e+00 0.000000e+00 0.000000e+00)) ((-9.594138e-01 -5.403772e-01 -3.750298e+02) (4.780224e-05 -2.453880e-04 1.873660e-02) (0.000000e+00 0.000000e+00 0.000000e+00))
9.700000e-02	((8.179696e+02 -1.850956e+03 -3.260147e-02) (9.964719e-02 3.461784e-02 2.638520e-04) (0.000000e+00 0.000000e+00 0.000000e+00)) ((-8.345301e-01 -4.732808e-01 -3.771221e+02) (4.301256e-05 -2.453005e-04 1.879358e-02) (0.000000e+00 0.000000e+00 0.000000e+00))
9.800000e-02	((8.239326e+02 -1.854740e+03 -3.337218e-02) (9.978300e-02 3.488191e-02 2.613807e-04) (0.000000e+00 0.000000e+00 0.000000e+00)) ((-7.498795e-01 -4.297403e-01 -3.792272e+02) (4.516055e-05 -2.545904e-04 1.885888e-02) (0.000000e+00 0.000000e+00 0.000000e+00))
9.900000e-02	((8.298860e+02 -1.858533e+03 -3.954325e-02) (9.999890e-02 3.515320e-02 2.542214e-04) (0.000000e+00 0.000000e+00 0.000000e+00)) ((-7.171383e-01 -4.036187e-01 -3.813408e+02) (4.658910e-05 -2.584004e-04 1.892918e-02) (0.000000e+00 0.000000e+00 0.000000e+00))
1.000000e-01	((8.356732e+02 -1.862290e+03 -5.748494e-02) (1.002532e-01 3.542703e-02 2.334081e-04) (0.000000e+00 0.000000e+00 0.000000e+00)) ((-7.329447e-01 -3.852400e-01 -3.833982e+02) (4.603976e-05 -2.518262e-04 1.900315e-02) (0.000000e+00 0.000000e+00 0.000000e+00))
1.010000e-01	((8.410218e+02 -1.865592e+03 -7.764133e-02) (1.005876e-01 3.570275e-02 2.053796e-04) (0.000000e+00 0.000000e+00 0.000000e+00)) ((-7.884120e-01 -3.767634e-01 -3.852766e+02) (4.579831e-05 -2.506906e-04 1.908116e-02) (0.000000e+00 0.000000e+00 0.000000e+00))
1.020000e-01	((8.457982e+02 -1.868108e+03 -9.617272e-02) (1.009360e-01 3.598923e-02 1.727397e-04) (0.000000e+00 0.000000e+00 0.000000e+00)) ((-8.550835e-01 -3.811315e-01 -3.869078e+02) (4.524637e-05 -2.447435e-04 1.916306e-02) (0.000000e+00 0.000000e+00 0.000000e+00))
1.030000e-01	((8.501169e+02 -1.870058e+03 -1.078470e-01) (1.013350e-01 3.627981e-02 1.367729e-04) (0.000000e+00 0.000000e+00 0.000000e+00)) ((-8.813071e-01 -3.698735e-01 -3.883433e+02) (4.142939e-05 -2.380069e-04 1.924855e-02) (0.000000e+00 0.000000e+00 0.000000e+00))
1.040000e-01	((8.540019e+02 -1.871526e+03 -1.167592e-01) (1.017677e-01 3.659460e-02 1.000775e-04) (0.000000e+00 0.000000e+00 0.000000e+00)) ((-8.782540e-01 -3.491990e-01 -3.896001e+02) (3.951589e-05 -2.251439e-04 1.934038e-02) (0.000000e+00 0.000000e+00 0.000000e+00))
1.050000e-01	((8.575416e+02 -1.872640e+03 -1.130770e-01) (1.022403e-01 3.691260e-02 7.650488e-05) (0.000000e+00 0.000000e+00 0.000000e+00)) ((-8.401059e-01 -3.117363e-01 -3.907132e+02) (3.512732e-05 -2.231646e-04 1.943431e-02) (0.000000e+00 0.000000e+00 0.000000e+00))
1.060000e-01	((8.608597e+02 -1.873605e+03 -9.954775e-02) (1.027599e-01 3.725874e-02 6.265320e-05) (0.000000e+00 0.000000e+00 0.000000e+00)) ((-7.577889e-01 -2.558104e-01 -3.917359e+02) (2.708334e-05 -2.145633e-04 1.953797e-02) (0.000000e+00 0.000000e+00 0.000000e+00))
1.070000e-01	((8.640618e+02 -1.874655e+03 -7.989047e-02) (1.033317e-01 3.762931e-02 5.971483e-05) (0.000000e+00 0.000000e+00 0.000000e+00)) ((-6.856357e-01 -2.034628e-01 -3.927168e+02) (2.241804e-05 -2.151513e-04 1.964939e-02) (0.000000e+00 0.000000e+00 0.000000e+00))
1.080000e-01	((8.672432e+02 -1.876029e+03 -5.961225e-02) (1.039339e-01 3.802069e-02 6.977079e-05) (0.000000e+00 0.000000e+00 0.000000e+00)) ((-6.161450e-01 -1.499321e-01 -3.937095e+02) (1.564851e-05 -2.079509e-04 1.976787e-02) (0.000000e+00 0.000000e+00 0.000000e+00))
1.090000e-01	((8.702841e+02 -1.877554e+03 -5.077954e-02) (1.045659e-01 3.842808e-02 8.351967e-05) (0.000000e+00 0.000000e+00 0.000000e+00)) ((-5.950608e-01 -1.168438e-01 -3.946672e+02) (8.481634e-06 -2.001685e-04 1.989257e-02) (0.000000e+00 0.000000e+00 0.000000e+00))
1.100000e-01	((8.731774e+02 -1.879211e+03 -5.193220e-02) (1.052170e-01 3.883765e-02 1.106227e-04) (0.000000e+00 0.000000e+00 0.000000e+00)) ((-5.859914e-01 -9.913085e-02 -3.955876e+02) (3.192774e-06 -1.974485e-04 2.002107e-02) (0.000000e+00 0.000000e+00 0.000000e+00))
1.110000e-01	((8.760079e+02 -1.881191e+03 -5.823303e-02) (1.058654e-01 3.924502e-02 1.283912e-04) (0.000000e+00 0.000000e+00 0.000000e+00)) ((-5.902649e-01 -8.232016e-02 -3.965071e+02) (-3.514770e-06 -1.922977e-04 2.015058e-02) (0.000000e+00 0.000000e+00 0.000000e+00))