# Force coefficients
# liftDir    : (0.000000e+00 1.000000e+00 0.000000e+00)
# dragDir    : (1.000000e+00 0.000000e+00 0.000000e+00)
# pitchAxis  : (0.000000e+00 0.000000e+00 1.000000e+00)
# magUInf    : 5.148000e+01
# lRef       : 4.530000e-01
# Aref       : 4.348800e-01
# CofR       : (0.000000e+00 0.000000e+00 0.000000e+00)
# Time       	Cm           	Cd           	Cl           	Cl(f)        	Cl(r)        	Cm	Cd	Cl	Cl(f)	Cl(r)
1.000000e-03	-1.775838e-03	1.970293e-03	-3.035502e-03	-3.293589e-03	2.580875e-04
2.000000e-03	-1.156322e-02	1.320529e-02	-2.102086e-02	-2.207365e-02	1.052794e-03
3.000000e-03	-1.992130e-02	2.273410e-02	-3.798130e-02	-3.891195e-02	9.306539e-04
4.000000e-03	-2.209842e-02	2.515454e-02	-4.404475e-02	-4.412079e-02	7.604087e-05
5.000000e-03	-2.254587e-02	2.535832e-02	-4.756187e-02	-4.632681e-02	-1.235063e-03
6.000000e-03	-2.339631e-02	2.572704e-02	-5.212375e-02	-4.945819e-02	-2.665562e-03
7.000000e-03	-2.503602e-02	2.680464e-02	-5.822908e-02	-5.415056e-02	-4.078522e-03
8.000000e-03	-2.874444e-02	3.012858e-02	-6.799849e-02	-6.274369e-02	-5.254807e-03
9.000000e-03	-3.393532e-02	3.510895e-02	-8.045295e-02	-7.416180e-02	-6.291152e-03
1.000000e-02	-3.954046e-02	4.062461e-02	-9.362286e-02	-8.635189e-02	-7.270969e-03
1.100000e-02	-4.458449e-02	4.555609e-02	-1.057671e-01	-9.746803e-02	-8.299061e-03
1.200000e-02	-4.937162e-02	5.026736e-02	-1.174461e-01	-1.080947e-01	-9.351410e-03
1.300000e-02	-5.370147e-02	5.450274e-02	-1.283653e-01	-1.178841e-01	-1.048118e-02
1.400000e-02	-5.795496e-02	5.867858e-02	-1.392424e-01	-1.275761e-01	-1.166621e-02
1.500000e-02	-6.314760e-02	6.391099e-02	-1.520409e-01	-1.391680e-01	-1.287283e-02
1.600000e-02	-6.985600e-02	7.077261e-02	-1.680738e-01	-1.538929e-01	-1.418090e-02
1.700000e-02	-7.796228e-02	7.906738e-02	-1.872766e-01	-1.716006e-01	-1.567602e-02
1.800000e-02	-8.697561e-02	8.821397e-02	-2.088229e-01	-1.913871e-01	-1.743584e-02
1.900000e-02	-9.605597e-02	9.728676e-02	-2.311270e-01	-2.116195e-01	-1.950753e-02
2.000000e-02	-1.049309e-01	1.059812e-01	-2.535810e-01	-2.317214e-01	-2.185964e-02
2.100000e-02	-1.133102e-01	1.140322e-01	-2.754092e-01	-2.510148e-01	-2.439441e-02
2.200000e-02	-1.212425e-01	1.215262e-01	-2.965415e-01	-2.695132e-01	-2.702829e-02
2.300000e-02	-1.292499e-01	1.290582e-01	-3.178794e-01	-2.881896e-01	-2.968978e-02
2.400000e-02	-1.379450e-01	1.372613e-01	-3.406823e-01	-3.082862e-01	-3.239610e-02
2.500000e-02	-1.474761e-01	1.463619e-01	-3.650744e-01	-3.300133e-01	-3.506112e-02
2.600000e-02	-1.582662e-01	1.567649e-01	-3.921133e-01	-3.543228e-01	-3.779047e-02
2.700000e-02	-1.700959e-01	1.682616e-01	-4.214407e-01	-3.808162e-01	-4.062449e-02
2.800000e-02	-1.829180e-01	1.807807e-01	-4.531340e-01	-4.094850e-01	-4.364898e-02
2.900000e-02	-1.962337e-01	1.937805e-01	-4.862881e-01	-4.393778e-01	-4.691037e-02
3.000000e-02	-2.097941e-01	2.070113e-01	-5.203698e-01	-4.699790e-01	-5.039076e-02
3.100000e-02	-2.233775e-01	2.202660e-01	-5.547337e-01	-5.007443e-01	-5.398937e-02
3.200000e-02	-2.370979e-01	2.336567e-01	-5.894555e-01	-5.318257e-01	-5.762986e-02
3.300000e-02	-2.511185e-01	2.473535e-01	-6.247203e-01	-5.634786e-01	-6.124170e-02
3.400000e-02	-2.657533e-01	2.616943e-01	-6.610180e-01	-5.962623e-01	-6.475575e-02
3.500000e-02	-2.810367e-01	2.767269e-01	-6.985556e-01	-6.303145e-01	-6.824115e-02
3.600000e-02	-2.970221e-01	2.925336e-01	-7.374960e-01	-6.657701e-01	-7.172592e-02
3.700000e-02	-3.135606e-01	3.089567e-01	-7.775417e-01	-7.023315e-01	-7.521023e-02
3.800000e-02	-3.306476e-01	3.259980e-01	-8.186295e-01	-7.399623e-01	-7.866714e-02
3.900000e-02	-3.483355e-01	3.436875e-01	-8.607740e-01	-7.787225e-01	-8.205146e-02
4.000000e-02	-3.665945e-01	3.619781e-01	-9.038505e-01	-8.185197e-01	-8.533075e-02
4.100000e-02	-3.850900e-01	3.805001e-01	-9.473589e-01	-8.587695e-01	-8.858943e-02
4.200000e-02	-4.037747e-01	3.992207e-01	-9.910352e-01	-8.992923e-01	-9.174288e-02
4.300000e-02	-4.228239e-01	4.182913e-01	-1.035297e+00	-9.404724e-01	-9.482469e-02
4.400000e-02	-4.422572e-01	4.377549e-01	-1.079954e+00	-9.822340e-01	-9.771955e-02
4.500000e-02	-4.619471e-01	4.574998e-01	-1.124634e+00	-1.024264e+00	-1.003697e-01
4.600000e-02	-4.820706e-01	4.777068e-01	-1.169638e+00	-1.066890e+00	-1.027484e-01
4.700000e-02	-5.018143e-01	4.976524e-01	-1.212952e+00	-1.108290e+00	-1.046619e-01
4.800000e-02	-5.211964e-01	5.173054e-01	-1.254701e+00	-1.148547e+00	-1.061543e-01
4.900000e-02	-5.404318e-01	5.369393e-01	-1.295182e+00	-1.188023e+00	-1.071593e-01
5.000000e-02	-5.594513e-01	5.563994e-01	-1.334567e+00	-1.226735e+00	-1.078324e-01
5.100000e-02	-5.781884e-01	5.756182e-01	-1.372847e+00	-1.264612e+00	-1.082353e-01
5.200000e-02	-5.965244e-01	5.944283e-01	-1.410083e+00	-1.301566e+00	-1.085173e-01
5.300000e-02	-6.141839e-01	6.125724e-01	-1.445616e+00	-1.336992e+00	-1.086241e-01
5.400000e-02	-6.308111e-01	6.297016e-01	-1.478630e+00	-1.370126e+00	-1.085041e-01
5.500000e-02	-6.458966e-01	6.453580e-01	-1.507807e+00	-1.399800e+00	-1.080069e-01
5.600000e-02	-6.599199e-01	6.599932e-01	-1.534179e+00	-1.427009e+00	-1.071696e-01
5.700000e-02	-6.727086e-01	6.734434e-01	-1.557431e+00	-1.451424e+00	-1.060070e-01
5.800000e-02	-6.847753e-01	6.861972e-01	-1.578694e+00	-1.474123e+00	-1.045719e-01
5.900000e-02	-6.963243e-01	6.984461e-01	-1.598558e+00	-1.495603e+00	-1.029548e-01
6.000000e-02	-7.076805e-01	7.104595e-01	-1.617916e+00	-1.516638e+00	-1.012773e-01
6.100000e-02	-7.188488e-01	7.222047e-01	-1.636975e+00	-1.537336e+00	-9.963854e-02
6.200000e-02	-7.298712e-01	7.336789e-01	-1.656032e+00	-1.557887e+00	-9.814465e-02
6.300000e-02	-7.407734e-01	7.448961e-01	-1.675247e+00	-1.578397e+00	-9.685015e-02
6.400000e-02	-7.515886e-01	7.558702e-01	-1.694766e+00	-1.598972e+00	-9.579443e-02
6.500000e-02	-7.624952e-01	7.667898e-01	-1.715012e+00	-1.620001e+00	-9.501103e-02
6.600000e-02	-7.734934e-01	7.776412e-01	-1.736152e+00	-1.641570e+00	-9.458266e-02
6.700000e-02	-7.844435e-01	7.883230e-01	-1.757896e+00	-1.663392e+00	-9.450461e-02
6.800000e-02	-7.949738e-01	7.984574e-01	-1.779658e+00	-1.684803e+00	-9.485537e-02
6.900000e-02	-8.052181e-01	8.082079e-01	-1.801638e+00	-1.706037e+00	-9.560087e-02
7.000000e-02	-8.150639e-01	8.174624e-01	-1.823610e+00	-1.726869e+00	-9.674089e-02
7.100000e-02	-8.245716e-01	8.263300e-01	-1.845494e+00	-1.747318e+00	-9.817523e-02
7.200000e-02	-8.339592e-01	8.350227e-01	-1.867581e+00	-1.767750e+00	-9.983138e-02
7.300000e-02	-8.432873e-01	8.436179e-01	-1.889803e+00	-1.788189e+00	-1.016142e-01
7.400000e-02	-8.525897e-01	8.521291e-01	-1.912191e+00	-1.808685e+00	-1.035057e-01
7.500000e-02	-8.620012e-01	8.607018e-01	-1.935063e+00	-1.829532e+00	-1.055301e-01
7.600000e-02	-8.713665e-01	8.691512e-01	-1.958249e+00	-1.850491e+00	-1.077580e-01
7.700000e-02	-8.809130e-01	8.777086e-01	-1.982179e+00	-1.872002e+00	-1.101764e-01
7.800000e-02	-8.904618e-01	8.861812e-01	-2.006476e+00	-1.893700e+00	-1.127762e-01
7.900000e-02	-9.002031e-01	8.948006e-01	-2.031313e+00	-1.915859e+00	-1.154533e-01
8.000000e-02	-9.101785e-01	9.036606e-01	-2.056540e+00	-1.938449e+00	-1.180917e-01
8.100000e-02	-9.204216e-01	9.128445e-01	-2.082045e+00	-1.961444e+00	-1.206008e-01
8.200000e-02	-9.314794e-01	9.229154e-01	-2.108741e+00	-1.985850e+00	-1.228911e-01
8.300000e-02	-9.433857e-01	9.339118e-01	-2.136713e+00	-2.011742e+00	-1.249710e-01
8.400000e-02	-9.556004e-01	9.452693e-01	-2.165127e+00	-2.038164e+00	-1.269631e-01
8.500000e-02	-9.673139e-01	9.561369e-01	-2.192668e+00	-2.063648e+00	-1.290200e-01
8.600000e-02	-9.788134e-01	9.668153e-01	-2.219955e+00	-2.088791e+00	-1.311640e-01
8.700000e-02	-9.898778e-01	9.770736e-01	-2.246685e+00	-2.113221e+00	-1.334649e-01
8.800000e-02	-1.000541e+00	9.869931e-01	-2.272819e+00	-2.136950e+00	-1.358686e-01
8.900000e-02	-1.009556e+00	9.953314e-01	-2.296240e+00	-2.157676e+00	-1.385636e-01
9.000000e-02	-1.017138e+00	1.002215e+00	-2.317589e+00	-2.175932e+00	-1.416562e-01
9.100000e-02	-1.023596e+00	1.007925e+00	-2.337381e+00	-2.192286e+00	-1.450951e-01
9.200000e-02	-1.028644e+00	1.012129e+00	-2.355041e+00	-2.206164e+00	-1.488769e-01
9.300000e-02	-1.031692e+00	1.014267e+00	-2.369261e+00	-2.216323e+00	-1.529379e-01
9.400000e-02	-1.032536e+00	1.014141e+00	-2.379299e+00	-2.222186e+00	-1.571130e-01
9.500000e-02	-1.032485e+00	1.013154e+00	-2.386901e+00	-2.225936e+00	-1.609656e-01
9.600000e-02	-1.032606e+00	1.012419e+00	-2.393731e+00	-2.229471e+00	-1.642600e-01
9.700000e-02	-1.033909e+00	1.013024e+00	-2.401419e+00	-2.234618e+00	-1.668008e-01
9.800000e-02	-1.037017e+00	1.015567e+00	-2.411201e+00	-2.242617e+00	-1.685832e-01
9.900000e-02	-1.041958e+00	1.019999e+00	-2.423343e+00	-2.253629e+00	-1.697139e-01
1.000000e-01	-1.048245e+00	1.025731e+00	-2.437321e+00	-2.266906e+00	-1.704154e-01
1.010000e-01	-1.055511e+00	1.032381e+00	-2.452678e+00	-2.281850e+00	-1.708280e-01
1.020000e-01	-1.063506e+00	1.039732e+00	-2.469093e+00	-2.298052e+00	-1.710407e-01
1.030000e-01	-1.072158e+00	1.047819e+00	-2.486288e+00	-2.315302e+00	-1.709862e-01
1.040000e-01	-1.081208e+00	1.056484e+00	-2.503666e+00	-2.333041e+00	-1.706247e-01
1.050000e-01	-1.091080e+00	1.066294e+00	-2.521760e+00	-2.351961e+00	-1.697999e-01
1.060000e-01	-1.102240e+00	1.077809e+00	-2.541311e+00	-2.372896e+00	-1.684152e-01
1.070000e-01	-1.114394e+00	1.090651e+00	-2.561995e+00	-2.395391e+00	-1.666040e-01
1.080000e-01	-1.126814e+00	1.103948e+00	-2.582948e+00	-2.418288e+00	-1.646604e-01
1.090000e-01	-1.138715e+00	1.116796e+00	-2.603107e+00	-2.440269e+00	-1.628382e-01
1.100000e-01	-1.149933e+00	1.128983e+00	-2.622359e+00	-2.461113e+00	-1.612461e-01
1.110000e-01	-1.160153e+00	1.140188e+00	-2.640108e+00	-2.480207e+00	-1.599008e-01
1.120000e-01	-1.169349e+00	1.150385e+00	-2.656336e+00	-2.497517e+00	-1.588190e-01
1.130000e-01	-1.177315e+00	1.159359e+00	-2.670672e+00	-2.512652e+00	-1.580206e-01
1.140000e-01	-1.183980e+00	1.167011e+00	-2.682978e+00	-2.525469e+00	-1.575089e-01
1.150000e-01	-1.189344e+00	1.173348e+00	-2.693111e+00	-2.535900e+00	-1.572113e-01
1.160000e-01	-1.193707e+00	1.178650e+00	-2.701476e+00	-2.544445e+00	-1.570313e-01
1.170000e-01	-1.197320e+00	1.183158e+00	-2.708519e+00	-2.551580e+00	-1.569391e-01
1.180000e-01	-1.200185e+00	1.186898e+00	-2.714128e+00	-2.557249e+00	-1.568788e-01
1.190000e-01	-1.202396e+00	1.189973e+00	-2.718392e+00	-2.561592e+00	-1.567995e-01
1.200000e-01	-1.204155e+00	1.192622e+00	-2.721518e+00	-2.564914e+00	-1.566038e-01
1.210000e-01	-1.205550e+00	1.194905e+00	-2.723710e+00	-2.567405e+00	-1.563046e-01
1.220000e-01	-1.206918e+00	1.197154e+00	-2.725557e+00	-2.569696e+00	-1.558608e-01
1.230000e-01	-1.208393e+00	1.199469e+00	-2.727355e+00	-2.572070e+00	-1.552846e-01
1.240000e-01	-1.210305e+00	1.202202e+00	-2.729484e+00	-2.575047e+00	-1.544372e-01
1.250000e-01	-1.212771e+00	1.205453e+00	-2.732266e+00	-2.578903e+00	-1.533621e-01
1.260000e-01	-1.215933e+00	1.209350e+00	-2.735983e+00	-2.583925e+00	-1.520579e-01
1.270000e-01	-1.219654e+00	1.213772e+00	-2.740468e+00	-2.589888e+00	-1.505799e-01
1.280000e-01	-1.223957e+00	1.218751e+00	-2.745807e+00	-2.596861e+00	-1.489461e-01
1.290000e-01	-1.228480e+00	1.223911e+00	-2.751508e+00	-2.604234e+00	-1.472734e-01
1.300000e-01	-1.233255e+00	1.229352e+00	-2.757430e+00	-2.611970e+00	-1.454601e-01
1.310000e-01	-1.238114e+00	1.234905e+00	-2.763332e+00	-2.619780e+00	-1.435519e-01
1.320000e-01	-1.243386e+00	1.240917e+00	-2.769735e+00	-2.628254e+00	-1.414818e-01
1.330000e-01	-1.249030e+00	1.247340e+00	-2.776595e+00	-2.637328e+00	-1.392673e-01
1.340000e-01	-1.255200e+00	1.254336e+00	-2.784142e+00	-2.647271e+00	-1.368704e-01
1.350000e-01	-1.261757e+00	1.261714e+00	-2.792361e+00	-2.657937e+00	-1.344235e-01
1.360000e-01	-1.268675e+00	1.269439e+00	-2.801283e+00	-2.669316e+00	-1.319668e-01
1.370000e-01	-1.275653e+00	1.277173e+00	-2.810576e+00	-2.680941e+00	-1.296350e-01
1.380000e-01	-1.282663e+00	1.284877e+00	-2.820223e+00	-2.692774e+00	-1.274486e-01
1.390000e-01	-1.289470e+00	1.292318e+00	-2.829922e+00	-2.704431e+00	-1.254909e-01
1.400000e-01	-1.296147e+00	1.299617e+00	-2.839652e+00	-2.715973e+00	-1.236786e-01
1.410000e-01	-1.302588e+00	1.306649e+00	-2.849306e+00	-2.727241e+00	-1.220656e-01
1.420000e-01	-1.308748e+00	1.313396e+00	-2.858703e+00	-2.738100e+00	-1.206030e-01
1.430000e-01	-1.314429e+00	1.319633e+00	-2.867620e+00	-2.748239e+00	-1.193806e-01
1.440000e-01	-1.319704e+00	1.325431e+00	-2.876124e+00	-2.757766e+00	-1.183577e-01
1.450000e-01	-1.324508e+00	1.330685e+00	-2.884172e+00	-2.766594e+00	-1.175778e-01
1.460000e-01	-1.328917e+00	1.335477e+00	-2.891856e+00	-2.774845e+00	-1.170110e-01
1.470000e-01	-1.332948e+00	1.339784e+00	-2.899280e+00	-2.782588e+00	-1.166920e-01
1.480000e-01	-1.336654e+00	1.343673e+00	-2.906462e+00	-2.789885e+00	-1.165768e-01
1.490000e-01	-1.340008e+00	1.347122e+00	-2.913390e+00	-2.796703e+00	-1.166869e-01
1.500000e-01	-1.343048e+00	1.350182e+00	-2.920029e+00	-2.803063e+00	-1.169665e-01
1.510000e-01	-1.345896e+00	1.352964e+00	-2.926626e+00	-2.809209e+00	-1.174173e-01
1.520000e-01	-1.348717e+00	1.355659e+00	-2.933416e+00	-2.815424e+00	-1.179913e-01
1.530000e-01	-1.351601e+00	1.358322e+00	-2.940612e+00	-2.821907e+00	-1.187048e-01
1.540000e-01	-1.354646e+00	1.361071e+00	-2.948304e+00	-2.828798e+00	-1.195058e-01
1.550000e-01	-1.357929e+00	1.363963e+00	-2.956698e+00	-2.836278e+00	-1.204199e-01
1.560000e-01	-1.361533e+00	1.367101e+00	-2.965871e+00	-2.844469e+00	-1.214025e-01
1.570000e-01	-1.365410e+00	1.370420e+00	-2.975812e+00	-2.853316e+00	-1.224961e-01
1.580000e-01	-1.369511e+00	1.373905e+00	-2.986384e+00	-2.862703e+00	-1.236812e-01
1.590000e-01	-1.373786e+00	1.377472e+00	-2.997567e+00	-2.872569e+00	-1.249977e-01
1.600000e-01	-1.378248e+00	1.381168e+00	-3.009290e+00	-2.882893e+00	-1.263970e-01
1.610000e-01	-1.382897e+00	1.384980e+00	-3.021609e+00	-2.893701e+00	-1.279078e-01
1.620000e-01	-1.387764e+00	1.388962e+00	-3.034462e+00	-2.904995e+00	-1.294676e-01
1.630000e-01	-1.392862e+00	1.393110e+00	-3.047914e+00	-2.916819e+00	-1.310949e-01
1.640000e-01	-1.398248e+00	1.397507e+00	-3.061981e+00	-2.929239e+00	-1.327424e-01
1.650000e-01	-1.404001e+00	1.402207e+00	-3.076900e+00	-2.942451e+00	-1.344492e-01
1.660000e-01	-1.410082e+00	1.407187e+00	-3.092547e+00	-2.956355e+00	-1.361913e-01
1.670000e-01	-1.416471e+00	1.412403e+00	-3.108977e+00	-2.970960e+00	-1.380173e-01
1.680000e-01	-1.423272e+00	1.417990e+00	-3.126285e+00	-2.986415e+00	-1.398706e-01
1.690000e-01	-1.430498e+00	1.423932e+00	-3.144607e+00	-3.002801e+00	-1.418059e-01
1.700000e-01	-1.438162e+00	1.430274e+00	-3.163870e+00	-3.020097e+00	-1.437728e-01
1.710000e-01	-1.446218e+00	1.436950e+00	-3.184102e+00	-3.038269e+00	-1.458329e-01
1.720000e-01	-1.454726e+00	1.444046e+00	-3.205337e+00	-3.057395e+00	-1.479427e-01
1.730000e-01	-1.463706e+00	1.451566e+00	-3.227688e+00	-3.077550e+00	-1.501375e-01
1.740000e-01	-1.473054e+00	1.459442e+00	-3.250796e+00	-3.098452e+00	-1.523440e-01
1.750000e-01	-1.482620e+00	1.467512e+00	-3.274469e+00	-3.119854e+00	-1.546143e-01
1.760000e-01	-1.492211e+00	1.475598e+00	-3.298283e+00	-3.141352e+00	-1.569309e-01
1.770000e-01	-1.501506e+00	1.483360e+00	-3.321820e+00	-3.162416e+00	-1.594038e-01
1.780000e-01	-1.510219e+00	1.490553e+00	-3.344288e+00	-3.182363e+00	-1.619251e-01
1.790000e-01	-1.518204e+00	1.497028e+00	-3.365499e+00	-3.200954e+00	-1.645450e-01
1.800000e-01	-1.525455e+00	1.502830e+00	-3.385096e+00	-3.218003e+00	-1.670931e-01
1.810000e-01	-1.531991e+00	1.507970e+00	-3.403078e+00	-3.233530e+00	-1.695476e-01
1.820000e-01	-1.537905e+00	1.512575e+00	-3.419337e+00	-3.247573e+00	-1.717637e-01
1.830000e-01	-1.543066e+00	1.516476e+00	-3.433886e+00	-3.260009e+00	-1.738770e-01
1.840000e-01	-1.547501e+00	1.519693e+00	-3.446889e+00	-3.270946e+00	-1.759435e-01
1.850000e-01	-1.551311e+00	1.522289e+00	-3.458730e+00	-3.280676e+00	-1.780546e-01
1.860000e-01	-1.554758e+00	1.524545e+00	-3.469810e+00	-3.289663e+00	-1.801472e-01
1.870000e-01	-1.557963e+00	1.526581e+00	-3.480265e+00	-3.298095e+00	-1.821699e-01
1.880000e-01	-1.560938e+00	1.528447e+00	-3.489991e+00	-3.305934e+00	-1.840570e-01
1.890000e-01	-1.563602e+00	1.530054e+00	-3.498863e+00	-3.313033e+00	-1.858296e-01
1.900000e-01	-1.566063e+00	1.531553e+00	-3.506975e+00	-3.319550e+00	-1.874249e-01
1.910000e-01	-1.568328e+00	1.532947e+00	-3.514400e+00	-3.325528e+00	-1.888719e-01
1.920000e-01	-1.570471e+00	1.534336e+00	-3.521218e+00	-3.331080e+00	-1.901376e-01
1.930000e-01	-1.572428e+00	1.535631e+00	-3.527443e+00	-3.336150e+00	-1.912932e-01
1.940000e-01	-1.574215e+00	1.536870e+00	-3.533051e+00	-3.340741e+00	-1.923103e-01
1.950000e-01	-1.575736e+00	1.537930e+00	-3.538018e+00	-3.344745e+00	-1.932726e-01
1.960000e-01	-1.577044e+00	1.538891e+00	-3.542324e+00	-3.348206e+00	-1.941173e-01
1.970000e-01	-1.578050e+00	1.539653e+00	-3.545890e+00	-3.350995e+00	-1.948950e-01
1.980000e-01	-1.578828e+00	1.540312e+00	-3.548754e+00	-3.353205e+00	-1.955488e-01
1.990000e-01	-1.579327e+00	1.540791e+00	-3.550933e+00	-3.354794e+00	-1.961393e-01
2.000000e-01	-1.579593e+00	1.541140e+00	-3.552463e+00	-3.355825e+00	-1.966387e-01
2.010000e-01	-1.579520e+00	1.541214e+00	-3.553305e+00	-3.356172e+00	-1.971322e-01
2.020000e-01	-1.579152e+00	1.541064e+00	-3.553474e+00	-3.355889e+00	-1.975853e-01
2.030000e-01	-1.578434e+00	1.540615e+00	-3.552958e+00	-3.354913e+00	-1.980453e-01
2.040000e-01	-1.577459e+00	1.539971e+00	-3.551827e+00	-3.353373e+00	-1.984548e-01
2.050000e-01	-1.576192e+00	1.539075e+00	-3.550123e+00	-3.351254e+00	-1.988689e-01
2.060000e-01	-1.574739e+00	1.538036e+00	-3.547947e+00	-3.348713e+00	-1.992340e-01
2.070000e-01	-1.573089e+00	1.536817e+00	-3.545398e+00	-3.345788e+00	-1.996107e-01
2.080000e-01	-1.571351e+00	1.535529e+00	-3.542599e+00	-3.342650e+00	-1.999488e-01
2.090000e-01	-1.569517e+00	1.534149e+00	-3.539580e+00	-3.339308e+00	-2.002726e-01
2.100000e-01	-1.567707e+00	1.532792e+00	-3.536483e+00	-3.335949e+00	-2.005338e-01
2.110000e-01	-1.565885e+00	1.531407e+00	-3.533311e+00	-3.332540e+00	-2.007707e-01
2.120000e-01	-1.564224e+00	1.530172e+00	-3.530286e+00	-3.329368e+00	-2.009189e-01
2.130000e-01	-1.562696e+00	1.529051e+00	-3.527408e+00	-3.326400e+00	-2.010081e-01
2.140000e-01	-1.561433e+00	1.528174e+00	-3.524844e+00	-3.323855e+00	-2.009889e-01
2.150000e-01	-1.560379e+00	1.527473e+00	-3.522585e+00	-3.321671e+00	-2.009137e-01
2.160000e-01	-1.559614e+00	1.527035e+00	-3.520667e+00	-3.319948e+00	-2.007192e-01
2.170000e-01	-1.559161e+00	1.526871e+00	-3.519208e+00	-3.318765e+00	-2.004428e-01
2.180000e-01	-1.559044e+00	1.527017e+00	-3.518164e+00	-3.318126e+00	-2.000380e-01
2.190000e-01	-1.559322e+00	1.527522e+00	-3.517739e+00	-3.318191e+00	-1.995477e-01
2.200000e-01	-1.559973e+00	1.528386e+00	-3.517783e+00	-3.318865e+00	-1.989184e-01
2.210000e-01	-1.561024e+00	1.529621e+00	-3.518466e+00	-3.320257e+00	-1.982086e-01
2.220000e-01	-1.562422e+00	1.531190e+00	-3.519641e+00	-3.322243e+00	-1.973986e-01
2.230000e-01	-1.564154e+00	1.533069e+00	-3.521412e+00	-3.324860e+00	-1.965516e-01
2.240000e-01	-1.566205e+00	1.535253e+00	-3.523684e+00	-3.328047e+00	-1.956372e-01
2.250000e-01	-1.568492e+00	1.537668e+00	-3.526344e+00	-3.331664e+00	-1.946803e-01
2.260000e-01	-1.570960e+00	1.540275e+00	-3.529198e+00	-3.335559e+00	-1.936385e-01
2.270000e-01	-1.573509e+00	1.542979e+00	-3.532103e+00	-3.339560e+00	-1.925427e-01
2.280000e-01	-1.576158e+00	1.545806e+00	-3.535050e+00	-3.343683e+00	-1.913669e-01
2.290000e-01	-1.578794e+00	1.548650e+00	-3.537859e+00	-3.347723e+00	-1.901351e-01
2.300000e-01	-1.581409e+00	1.551503e+00	-3.540532e+00	-3.351676e+00	-1.888567e-01
2.310000e-01	-1.583906e+00	1.554276e+00	-3.542929e+00	-3.355371e+00	-1.875582e-01
2.320000e-01	-1.586283e+00	1.556967e+00	-3.545057e+00	-3.358811e+00	-1.862459e-01
2.330000e-01	-1.588440e+00	1.559474e+00	-3.546768e+00	-3.361824e+00	-1.849442e-01
2.340000e-01	-1.590392e+00	1.561808e+00	-3.548103e+00	-3.364443e+00	-1.836593e-01
2.350000e-01	-1.592022e+00	1.563840e+00	-3.548862e+00	-3.366453e+00	-1.824092e-01
2.360000e-01	-1.593405e+00	1.565647e+00	-3.549181e+00	-3.367995e+00	-1.811857e-01
2.370000e-01	-1.594422e+00	1.567106e+00	-3.548861e+00	-3.368853e+00	-1.800080e-01
2.380000e-01	-1.595211e+00	1.568359e+00	-3.548129e+00	-3.369275e+00	-1.788540e-01
2.390000e-01	-1.595687e+00	1.569306e+00	-3.546827e+00	-3.369101e+00	-1.777262e-01
2.400000e-01	-1.595995e+00	1.570098e+00	-3.545208e+00	-3.368599e+00	-1.766086e-01
2.410000e-01	-1.596087e+00	1.570661e+00	-3.543198e+00	-3.367686e+00	-1.755121e-01
2.420000e-01	-1.596084e+00	1.571132e+00	-3.541022e+00	-3.366595e+00	-1.744266e-01
2.430000e-01	-1.595929e+00	1.571433e+00	-3.538554e+00	-3.365206e+00	-1.733473e-01
2.440000e-01	-1.595721e+00	1.571681e+00	-3.535964e+00	-3.363703e+00	-1.722607e-01
2.450000e-01	-1.595458e+00	1.571846e+00	-3.533244e+00	-3.362080e+00	-1.711642e-01
2.460000e-01	-1.595254e+00	1.572067e+00	-3.530593e+00	-3.360550e+00	-1.700424e-01
2.470000e-01	-1.595080e+00	1.572287e+00	-3.527996e+00	-3.359078e+00	-1.689185e-01
2.480000e-01	-1.595076e+00	1.572670e+00	-3.525678e+00	-3.357915e+00	-1.677636e-01
2.490000e-01	-1.595226e+00	1.573169e+00	-3.523668e+00	-3.357059e+00	-1.666081e-01
2.500000e-01	-1.595667e+00	1.573952e+00	-3.522163e+00	-3.356749e+00	-1.654143e-01
2.510000e-01	-1.596361e+00	1.574946e+00	-3.521133e+00	-3.356927e+00	-1.642057e-01
2.520000e-01	-1.597360e+00	1.576237e+00	-3.520627e+00	-3.357673e+00	-1.629535e-01
2.530000e-01	-1.598609e+00	1.577729e+00	-3.520653e+00	-3.358936e+00	-1.617172e-01
2.540000e-01	-1.600132e+00	1.579482e+00	-3.521213e+00	-3.360738e+00	-1.604747e-01
2.550000e-01	-1.601882e+00	1.581411e+00	-3.522294e+00	-3.363030e+00	-1.592647e-01
2.560000e-01	-1.603920e+00	1.583619e+00	-3.523944e+00	-3.365892e+00	-1.580522e-01
2.570000e-01	-1.606192e+00	1.586009e+00	-3.526143e+00	-3.369263e+00	-1.568796e-01
2.580000e-01	-1.608731e+00	1.588658e+00	-3.528887e+00	-3.373175e+00	-1.557123e-01
2.590000e-01	-1.611482e+00	1.591470e+00	-3.532131e+00	-3.377547e+00	-1.545842e-01
2.600000e-01	-1.614400e+00	1.594453e+00	-3.535735e+00	-3.382268e+00	-1.534671e-01
2.610000e-01	-1.617407e+00	1.597477e+00	-3.539639e+00	-3.387226e+00	-1.524128e-01
2.620000e-01	-1.620442e+00	1.600528e+00	-3.543681e+00	-3.392282e+00	-1.513982e-01
2.630000e-01	-1.623415e+00	1.603470e+00	-3.547795e+00	-3.397312e+00	-1.504825e-01
2.640000e-01	-1.626287e+00	1.606326e+00	-3.551838e+00	-3.402206e+00	-1.496315e-01
2.650000e-01	-1.629017e+00	1.609000e+00	-3.555783e+00	-3.406908e+00	-1.488746e-01
2.660000e-01	-1.631602e+00	1.611561e+00	-3.559508e+00	-3.411356e+00	-1.481522e-01
2.670000e-01	-1.634008e+00	1.613938e+00	-3.563018e+00	-3.415517e+00	-1.475014e-01
2.680000e-01	-1.636220e+00	1.616181e+00	-3.566151e+00	-3.419295e+00	-1.468559e-01
2.690000e-01	-1.638189e+00	1.618195e+00	-3.568914e+00	-3.422646e+00	-1.462682e-01
2.700000e-01	-1.639898e+00	1.620013e+00	-3.571156e+00	-3.425476e+00	-1.456798e-01
2.710000e-01	-1.641295e+00	1.621517e+00	-3.572917e+00	-3.427753e+00	-1.451637e-01
2.720000e-01	-1.642422e+00	1.622801e+00	-3.574159e+00	-3.429501e+00	-1.446580e-01
2.730000e-01	-1.643155e+00	1.623679e+00	-3.574819e+00	-3.430565e+00	-1.442547e-01
2.740000e-01	-1.643602e+00	1.624312e+00	-3.574918e+00	-3.431061e+00	-1.438573e-01
2.750000e-01	-1.643678e+00	1.624555e+00	-3.574473e+00	-3.430915e+00	-1.435584e-01
2.760000e-01	-1.643523e+00	1.624616e+00	-3.573556e+00	-3.430301e+00	-1.432556e-01
2.770000e-01	-1.642989e+00	1.624286e+00	-3.572047e+00	-3.429013e+00	-1.430345e-01
2.780000e-01	-1.642283e+00	1.623837e+00	-3.570130e+00	-3.427349e+00	-1.427817e-01
2.790000e-01	-1.641312e+00	1.623110e+00	-3.567792e+00	-3.425208e+00	-1.425835e-01
2.800000e-01	-1.640265e+00	1.622350e+00	-3.565211e+00	-3.422870e+00	-1.423406e-01
2.810000e-01	-1.639005e+00	1.621358e+00	-3.562319e+00	-3.420164e+00	-1.421550e-01
2.820000e-01	-1.637725e+00	1.620380e+00	-3.559297e+00	-3.417374e+00	-1.419234e-01
2.830000e-01	-1.636319e+00	1.619247e+00	-3.556137e+00	-3.414388e+00	-1.417491e-01
2.840000e-01	-1.634879e+00	1.618105e+00	-3.552861e+00	-3.411310e+00	-1.415514e-01
2.850000e-01	-1.633335e+00	1.616835e+00	-3.549494e+00	-3.408082e+00	-1.414121e-01
2.860000e-01	-1.631787e+00	1.615582e+00	-3.546071e+00	-3.404823e+00	-1.412483e-01
2.870000e-01	-1.630197e+00	1.614263e+00	-3.542658e+00	-3.401526e+00	-1.411324e-01
2.880000e-01	-1.628682e+00	1.613040e+00	-3.539316e+00	-3.398340e+00	-1.409760e-01
2.890000e-01	-1.627204e+00	1.611836e+00	-3.536095e+00	-3.395252e+00	-1.408432e-01
2.900000e-01	-1.625879e+00	1.610803e+00	-3.533066e+00	-3.392413e+00	-1.406538e-01
2.910000e-01	-1.624605e+00	1.609794e+00	-3.530208e+00	-3.389709e+00	-1.404989e-01
2.920000e-01	-1.623486e+00	1.608946e+00	-3.527599e+00	-3.387286e+00	-1.403128e-01
2.930000e-01	-1.622363e+00	1.608053e+00	-3.525100e+00	-3.384913e+00	-1.401872e-01
2.940000e-01	-1.621361e+00	1.607282e+00	-3.522825e+00	-3.382773e+00	-1.400520e-01
2.950000e-01	-1.620280e+00	1.606391e+00	-3.520553e+00	-3.380556e+00	-1.399965e-01
2.960000e-01	-1.619268e+00	1.605570e+00	-3.518418e+00	-3.378477e+00	-1.399407e-01
2.970000e-01	-1.618169e+00	1.604627e+00	-3.516264e+00	-3.376301e+00	-1.399628e-01
2.980000e-01	-1.617143e+00	1.603762e+00	-3.514241e+00	-3.374264e+00	-1.399773e-01
2.990000e-01	-1.616031e+00	1.602778e+00	-3.512179e+00	-3.372121e+00	-1.400582e-01
3.000000e-01	-1.615018e+00	1.601900e+00	-3.510281e+00	-3.370158e+00	-1.401225e-01
3.010000e-01	-1.613956e+00	1.600941e+00	-3.508393e+00	-3.368153e+00	-1.402407e-01
3.020000e-01	-1.613010e+00	1.600106e+00	-3.506678e+00	-3.366349e+00	-1.403296e-01
3.030000e-01	-1.611973e+00	1.599147e+00	-3.504913e+00	-3.364430e+00	-1.404833e-01
3.040000e-01	-1.610973e+00	1.598228e+00	-3.503199e+00	-3.362573e+00	-1.406261e-01
3.050000e-01	-1.609858e+00	1.597156e+00	-3.501394e+00	-3.360555e+00	-1.408390e-01
3.060000e-01	-1.608785e+00	1.596134e+00	-3.499634e+00	-3.358602e+00	-1.410321e-01
3.070000e-01	-1.607608e+00	1.594971e+00	-3.497798e+00	-3.356507e+00	-1.412911e-01
3.080000e-01	-1.606473e+00	1.593859e+00	-3.495995e+00	-3.354471e+00	-1.415242e-01
3.090000e-01	-1.605218e+00	1.592597e+00	-3.494068e+00	-3.352252e+00	-1.418159e-01
3.100000e-01	-1.603999e+00	1.591384e+00	-3.492162e+00	-3.350080e+00	-1.420817e-01
3.110000e-01	-1.602677e+00	1.590045e+00	-3.490132e+00	-3.347743e+00	-1.423883e-01
3.120000e-01	-1.601405e+00	1.588776e+00	-3.488140e+00	-3.345475e+00	-1.426649e-01
3.130000e-01	-1.600031e+00	1.587382e+00	-3.486036e+00	-3.343049e+00	-1.429873e-01
3.140000e-01	-1.598683e+00	1.586036e+00	-3.483951e+00	-3.340659e+00	-1.432922e-01
3.150000e-01	-1.597188e+00	1.584520e+00	-3.481696e+00	-3.338036e+00	-1.436594e-01
3.160000e-01	-1.595679e+00	1.583010e+00	-3.479390e+00	-3.335374e+00	-1.440156e-01
3.170000e-01	-1.594037e+00	1.581336e+00	-3.476949e+00	-3.332511e+00	-1.444376e-01
3.180000e-01	-1.592378e+00	1.579661e+00	-3.474449e+00	-3.329603e+00	-1.448461e-01
3.190000e-01	-1.590603e+00	1.577854e+00	-3.471809e+00	-3.326508e+00	-1.453012e-01
3.200000e-01	-1.588857e+00	1.576101e+00	-3.469161e+00	-3.323437e+00	-1.457234e-01
3.210000e-01	-1.587056e+00	1.574281e+00	-3.466452e+00	-3.320282e+00	-1.461701e-01
3.220000e-01	-1.585319e+00	1.572535e+00	-3.463801e+00	-3.317219e+00	-1.465814e-01
3.230000e-01	-1.583507e+00	1.570677e+00	-3.461097e+00	-3.314055e+00	-1.470415e-01
3.240000e-01	-1.581745e+00	1.568870e+00	-3.458461e+00	-3.310976e+00	-1.474849e-01
3.250000e-01	-1.579962e+00	1.567008e+00	-3.455837e+00	-3.307880e+00	-1.479564e-01
3.260000e-01	-1.578260e+00	1.565237e+00	-3.453316e+00	-3.304918e+00	-1.483978e-01
3.270000e-01	-1.576574e+00	1.563454e+00	-3.450861e+00	-3.302004e+00	-1.488561e-01
3.280000e-01	-1.574959e+00	1.561751e+00	-3.448517e+00	-3.299218e+00	-1.492995e-01
3.290000e-01	-1.573398e+00	1.560079e+00	-3.446303e+00	-3.296549e+00	-1.497536e-01
3.300000e-01	-1.571947e+00	1.558535e+00	-3.444241e+00	-3.294067e+00	-1.501736e-01
3.310000e-01	-1.570600e+00	1.557073e+00	-3.442383e+00	-3.291791e+00	-1.505916e-01
3.320000e-01	-1.569385e+00	1.555758e+00	-3.440717e+00	-3.289743e+00	-1.509737e-01
3.330000e-01	-1.568274e+00	1.554518e+00	-3.439275e+00	-3.287912e+00	-1.513630e-01
3.340000e-01	-1.567292e+00	1.553416e+00	-3.438025e+00	-3.286305e+00	-1.517202e-01
3.350000e-01	-1.566418e+00	1.552394e+00	-3.437011e+00	-3.284924e+00	-1.520871e-01
3.360000e-01	-1.565675e+00	1.551516e+00	-3.436191e+00	-3.283771e+00	-1.524204e-01
3.370000e-01	-1.565043e+00	1.550731e+00	-3.435596e+00	-3.282842e+00	-1.527547e-01
3.380000e-01	-1.564561e+00	1.550117e+00	-3.435214e+00	-3.282168e+00	-1.530462e-01
3.390000e-01	-1.564208e+00	1.549614e+00	-3.435079e+00	-3.281747e+00	-1.533315e-01
3.400000e-01	-1.564014e+00	1.549290e+00	-3.435181e+00	-3.281604e+00	-1.535764e-01
3.410000e-01	-1.563924e+00	1.549047e+00	-3.435501e+00	-3.281675e+00	-1.538261e-01
3.420000e-01	-1.563951e+00	1.548934e+00	-3.435994e+00	-3.281947e+00	-1.540461e-01
3.430000e-01	-1.564042e+00	1.548860e+00	-3.436654e+00	-3.282369e+00	-1.542852e-01
3.440000e-01	-1.564231e+00	1.548898e+00	-3.437465e+00	-3.282963e+00	-1.545017e-01
3.450000e-01	-1.564446e+00	1.548938e+00	-3.438373e+00	-3.283633e+00	-1.547401e-01
3.460000e-01	-1.564737e+00	1.549071e+00	-3.439386e+00	-3.284429e+00	-1.549562e-01
3.470000e-01	-1.565036e+00	1.549194e+00	-3.440468e+00	-3.285270e+00	-1.551978e-01
3.480000e-01	-1.565418e+00	1.549422e+00	-3.441647e+00	-3.286241e+00	-1.554060e-01
3.490000e-01	-1.565782e+00	1.549618e+00	-3.442842e+00	-3.287203e+00	-1.556392e-01
3.500000e-01	-1.566197e+00	1.549890e+00	-3.444080e+00	-3.288237e+00	-1.558433e-01
3.510000e-01	-1.566575e+00	1.550110e+00	-3.445304e+00	-3.289227e+00	-1.560765e-01
3.520000e-01	-1.566983e+00	1.550382e+00	-3.446529e+00	-3.290247e+00	-1.562816e-01
3.530000e-01	-1.567337e+00	1.550585e+00	-3.447722e+00	-3.291198e+00	-1.565235e-01
3.540000e-01	-1.567692e+00	1.550811e+00	-3.448856e+00	-3.292120e+00	-1.567363e-01
3.550000e-01	-1.567993e+00	1.550967e+00	-3.449961e+00	-3.292973e+00	-1.569874e-01
3.560000e-01	-1.568294e+00	1.551145e+00	-3.450997e+00	-3.293792e+00	-1.572051e-01
3.570000e-01	-1.568546e+00	1.551261e+00	-3.452002e+00	-3.294547e+00	-1.574544e-01
3.580000e-01	-1.568806e+00	1.551407e+00	-3.452946e+00	-3.295279e+00	-1.576673e-01
3.590000e-01	-1.569019e+00	1.551492e+00	-3.453869e+00	-3.295954e+00	-1.579152e-01
3.600000e-01	-1.569236e+00	1.551600e+00	-3.454726e+00	-3.296599e+00	-1.581264e-01