# Force coefficients
# liftDir    : (0.000000e+00 1.000000e+00 0.000000e+00)
# dragDir    : (1.000000e+00 0.000000e+00 0.000000e+00)
# pitchAxis  : (0.000000e+00 0.000000e+00 1.000000e+00)
# magUInf    : 5.148000e+01
# lRef       : 4.530000e-01
# Aref       : 4.348800e-01
# CofR       : (0.000000e+00 0.000000e+00 0.000000e+00)
# Time       	Cm           	Cd           	Cl           	Cl(f)        	Cl(r)        	Cm	Cd	Cl	Cl(f)	Cl(r)
1.000000e-03	-1.401971e-03	1.531279e-03	-2.361901e-03	-2.582922e-03	2.210208e-04
2.000000e-03	-5.328916e-03	6.002735e-03	-9.511981e-03	-1.008491e-02	5.729258e-04
3.000000e-03	-7.846509e-03	8.878834e-03	-1.470591e-02	-1.519947e-02	4.935523e-04
4.000000e-03	-8.274876e-03	9.358763e-03	-1.636468e-02	-1.645721e-02	9.253743e-05
5.000000e-03	-7.826204e-03	8.798782e-03	-1.655672e-02	-1.610456e-02	-4.521572e-04
6.000000e-03	-7.665384e-03	8.444542e-03	-1.733745e-02	-1.633411e-02	-1.003340e-03
7.000000e-03	-8.119382e-03	8.677329e-03	-1.914781e-02	-1.769328e-02	-1.454521e-03
8.000000e-03	-9.403369e-03	9.806721e-03	-2.241260e-02	-2.060967e-02	-1.802931e-03
9.000000e-03	-1.126587e-02	1.159015e-02	-2.671250e-02	-2.462212e-02	-2.090380e-03
1.000000e-02	-1.326801e-02	1.356792e-02	-3.124026e-02	-2.888813e-02	-2.352121e-03
1.100000e-02	-1.503706e-02	1.531306e-02	-3.536995e-02	-3.272203e-02	-2.647920e-03
1.200000e-02	-1.666934e-02	1.694198e-02	-3.930226e-02	-3.632047e-02	-2.981793e-03
1.300000e-02	-1.813534e-02	1.839052e-02	-4.298884e-02	-3.962976e-02	-3.359076e-03
1.400000e-02	-1.956780e-02	1.979799e-02	-4.664118e-02	-4.288839e-02	-3.752790e-03
1.500000e-02	-2.120770e-02	2.141201e-02	-5.074365e-02	-4.657953e-02	-4.164126e-03
1.600000e-02	-2.331069e-02	2.350585e-02	-5.581414e-02	-5.121777e-02	-4.596378e-03
1.700000e-02	-2.586329e-02	2.604921e-02	-6.188256e-02	-5.680457e-02	-5.077991e-03
1.800000e-02	-2.876100e-02	2.893584e-02	-6.878348e-02	-6.315273e-02	-5.630742e-03
1.900000e-02	-3.180002e-02	3.194099e-02	-7.614306e-02	-6.987155e-02	-6.271514e-03
2.000000e-02	-3.481767e-02	3.489090e-02	-8.361558e-02	-7.662546e-02	-6.990127e-03
2.100000e-02	-3.768763e-02	3.765404e-02	-9.091881e-02	-8.314704e-02	-7.771775e-03
2.200000e-02	-4.036571e-02	4.018256e-02	-9.792274e-02	-8.932708e-02	-8.595659e-03
2.300000e-02	-4.302826e-02	4.266472e-02	-1.049231e-01	-9.548981e-02	-9.433298e-03
2.400000e-02	-4.585891e-02	4.530525e-02	-1.122670e-01	-1.019924e-01	-1.027460e-02
2.500000e-02	-4.896638e-02	4.824398e-02	-1.201474e-01	-1.090401e-01	-1.110731e-02
2.600000e-02	-5.237819e-02	5.151680e-02	-1.286138e-01	-1.166851e-01	-1.192873e-02
2.700000e-02	-5.616457e-02	5.519320e-02	-1.378974e-01	-1.251133e-01	-1.278412e-02
2.800000e-02	-6.026634e-02	5.919878e-02	-1.479379e-01	-1.342353e-01	-1.370260e-02
2.900000e-02	-6.455098e-02	6.340546e-02	-1.584649e-01	-1.437834e-01	-1.468147e-02
3.000000e-02	-6.884578e-02	6.763136e-02	-1.691143e-01	-1.534029e-01	-1.571139e-02
3.100000e-02	-7.315288e-02	7.188216e-02	-1.798659e-01	-1.630858e-01	-1.678008e-02
3.200000e-02	-7.744447e-02	7.613160e-02	-1.905988e-01	-1.727438e-01	-1.785491e-02
3.300000e-02	-8.173055e-02	8.039555e-02	-2.012932e-01	-1.823771e-01	-1.891605e-02
3.400000e-02	-8.614452e-02	8.480480e-02	-2.121527e-01	-1.922209e-01	-1.993182e-02
3.500000e-02	-9.076782e-02	8.944184e-02	-2.234265e-01	-2.024811e-01	-2.094544e-02
3.600000e-02	-9.560118e-02	9.430703e-02	-2.350971e-01	-2.131497e-01	-2.194738e-02
3.700000e-02	-1.005592e-01	9.932197e-02	-2.470162e-01	-2.240673e-01	-2.294891e-02
3.800000e-02	-1.057565e-01	1.045909e-01	-2.594308e-01	-2.354719e-01	-2.395890e-02
3.900000e-02	-1.111872e-01	1.101079e-01	-2.723575e-01	-2.473659e-01	-2.499161e-02
4.000000e-02	-1.168091e-01	1.158173e-01	-2.856950e-01	-2.596566e-01	-2.603834e-02
4.100000e-02	-1.224741e-01	1.215699e-01	-2.990978e-01	-2.720230e-01	-2.707480e-02
4.200000e-02	-1.282600e-01	1.274377e-01	-3.127254e-01	-2.846227e-01	-2.810274e-02
4.300000e-02	-1.340965e-01	1.333536e-01	-3.263934e-01	-2.972932e-01	-2.910025e-02
4.400000e-02	-1.401402e-01	1.394615e-01	-3.403653e-01	-3.103228e-01	-3.004244e-02
4.500000e-02	-1.462352e-01	1.456113e-01	-3.543519e-01	-3.234111e-01	-3.094072e-02
4.600000e-02	-1.524405e-01	1.518577e-01	-3.683986e-01	-3.366398e-01	-3.175875e-02
4.700000e-02	-1.587942e-01	1.582449e-01	-3.825952e-01	-3.500918e-01	-3.250339e-02
4.800000e-02	-1.654262e-01	1.648911e-01	-3.972326e-01	-3.640425e-01	-3.319006e-02
4.900000e-02	-1.722507e-01	1.717037e-01	-4.122027e-01	-3.783520e-01	-3.385068e-02
5.000000e-02	-1.792865e-01	1.786828e-01	-4.276249e-01	-3.930989e-01	-3.452596e-02
5.100000e-02	-1.864671e-01	1.857652e-01	-4.434147e-01	-4.081744e-01	-3.524031e-02
5.200000e-02	-1.937258e-01	1.928656e-01	-4.594707e-01	-4.234612e-01	-3.600955e-02
5.300000e-02	-2.009806e-01	1.999123e-01	-4.755789e-01	-4.387700e-01	-3.680887e-02
5.400000e-02	-2.082633e-01	2.069273e-01	-4.918011e-01	-4.541639e-01	-3.763721e-02
5.500000e-02	-2.154539e-01	2.137911e-01	-5.078856e-01	-4.693967e-01	-3.848887e-02
5.600000e-02	-2.226283e-01	2.205705e-01	-5.239766e-01	-4.846166e-01	-3.936002e-02
5.700000e-02	-2.297312e-01	2.272122e-01	-5.399748e-01	-4.997186e-01	-4.025622e-02
5.800000e-02	-2.368151e-01	2.337624e-01	-5.560089e-01	-5.148196e-01	-4.118931e-02
5.900000e-02	-2.440070e-01	2.403518e-01	-5.723307e-01	-5.301723e-01	-4.215834e-02
6.000000e-02	-2.513598e-01	2.470343e-01	-5.890794e-01	-5.458995e-01	-4.317992e-02
6.100000e-02	-2.587586e-01	2.537014e-01	-6.060597e-01	-5.617885e-01	-4.427122e-02
6.200000e-02	-2.662231e-01	2.603724e-01	-6.232780e-01	-5.778621e-01	-4.541589e-02
6.300000e-02	-2.737349e-01	2.670278e-01	-6.406928e-01	-5.940813e-01	-4.661149e-02
6.400000e-02	-2.812535e-01	2.736209e-01	-6.582521e-01	-6.103796e-01	-4.787255e-02
6.500000e-02	-2.887472e-01	2.801275e-01	-6.758751e-01	-6.266848e-01	-4.919035e-02
6.600000e-02	-2.961022e-01	2.864396e-01	-6.932835e-01	-6.427440e-01	-5.053954e-02
6.700000e-02	-3.032955e-01	2.925382e-01	-7.103798e-01	-6.584854e-01	-5.189443e-02
6.800000e-02	-3.102221e-01	2.983467e-01	-7.269209e-01	-6.736826e-01	-5.323830e-02
6.900000e-02	-3.167963e-01	3.038024e-01	-7.426929e-01	-6.881427e-01	-5.455012e-02
7.000000e-02	-3.231028e-01	3.089877e-01	-7.578532e-01	-7.020294e-01	-5.582377e-02
7.100000e-02	-3.291278e-01	3.139422e-01	-7.723100e-01	-7.152828e-01	-5.702718e-02
7.200000e-02	-3.348883e-01	3.186844e-01	-7.860737e-01	-7.279251e-01	-5.814859e-02
7.300000e-02	-3.404611e-01	3.233064e-01	-7.992739e-01	-7.400980e-01	-5.917583e-02
7.400000e-02	-3.458572e-01	3.278331e-01	-8.119065e-01	-7.518104e-01	-6.009606e-02
7.500000e-02	-3.510173e-01	3.322154e-01	-8.238578e-01	-7.629462e-01	-6.091160e-02
7.600000e-02	-3.559103e-01	3.364263e-01	-8.350701e-01	-7.734453e-01	-6.162477e-02
7.700000e-02	-3.605590e-01	3.404868e-01	-8.456112e-01	-7.833646e-01	-6.224658e-02
7.800000e-02	-3.649992e-01	3.444477e-01	-8.555171e-01	-7.927577e-01	-6.275941e-02
7.900000e-02	-3.692828e-01	3.483758e-01	-8.648435e-01	-8.017046e-01	-6.313891e-02
8.000000e-02	-3.733791e-01	3.522494e-01	-8.735390e-01	-8.101486e-01	-6.339042e-02
8.100000e-02	-3.773715e-01	3.561566e-01	-8.818098e-01	-8.182764e-01	-6.353345e-02
8.200000e-02	-3.812457e-01	3.600872e-01	-8.895883e-01	-8.260399e-01	-6.354846e-02
8.300000e-02	-3.849864e-01	3.640132e-01	-8.968467e-01	-8.334098e-01	-6.343693e-02
8.400000e-02	-3.885762e-01	3.678955e-01	-9.035171e-01	-8.403347e-01	-6.318235e-02
8.500000e-02	-3.920654e-01	3.717672e-01	-9.096807e-01	-8.469057e-01	-6.277494e-02
8.600000e-02	-3.956162e-01	3.758020e-01	-9.155394e-01	-8.533859e-01	-6.215345e-02
8.700000e-02	-3.992532e-01	3.800114e-01	-9.210677e-01	-8.597871e-01	-6.128059e-02
8.800000e-02	-4.029772e-01	3.843994e-01	-9.263691e-01	-8.661618e-01	-6.020734e-02
8.900000e-02	-4.066860e-01	3.888699e-01	-9.312421e-01	-8.723071e-01	-5.893504e-02
9.000000e-02	-4.103950e-01	3.934586e-01	-9.356072e-01	-8.781986e-01	-5.740860e-02
9.100000e-02	-4.141630e-01	3.981995e-01	-9.396692e-01	-8.839975e-01	-5.567164e-02
9.200000e-02	-4.180343e-01	4.030844e-01	-9.437435e-01	-8.899061e-01	-5.383741e-02
9.300000e-02	-4.219846e-01	4.080467e-01	-9.479689e-01	-8.959691e-01	-5.199988e-02
9.400000e-02	-4.259114e-01	4.129449e-01	-9.522760e-01	-9.020494e-01	-5.022656e-02
9.500000e-02	-4.296247e-01	4.175729e-01	-9.563154e-01	-9.077824e-01	-4.853306e-02
9.600000e-02	-4.330565e-01	4.218843e-01	-9.598310e-01	-9.129720e-01	-4.685895e-02
9.700000e-02	-4.361257e-01	4.258176e-01	-9.625061e-01	-9.173788e-01	-4.512737e-02
9.800000e-02	-4.387495e-01	4.292944e-01	-9.642215e-01	-9.208603e-01	-4.336120e-02
9.900000e-02	-4.410012e-01	4.323876e-01	-9.651384e-01	-9.235704e-01	-4.156804e-02
1.000000e-01	-4.428277e-01	4.350317e-01	-9.652463e-01	-9.254509e-01	-3.979543e-02
1.010000e-01	-4.442033e-01	4.371959e-01	-9.645312e-01	-9.264688e-01	-3.806233e-02
1.020000e-01	-4.449453e-01	4.387189e-01	-9.625768e-01	-9.262337e-01	-3.634315e-02
1.030000e-01	-4.453006e-01	4.398434e-01	-9.599661e-01	-9.252836e-01	-3.468245e-02
1.040000e-01	-4.454517e-01	4.407467e-01	-9.571116e-01	-9.240076e-01	-3.310409e-02
1.050000e-01	-4.455313e-01	4.415426e-01	-9.544171e-01	-9.227399e-01	-3.167727e-02
1.060000e-01	-4.455568e-01	4.422438e-01	-9.519281e-01	-9.215209e-01	-3.040728e-02
1.070000e-01	-4.455927e-01	4.428850e-01	-9.499485e-01	-9.205669e-01	-2.938159e-02
1.080000e-01	-4.455295e-01	4.433861e-01	-9.481080e-01	-9.195835e-01	-2.852455e-02
1.090000e-01	-4.456080e-01	4.439890e-01	-9.468384e-01	-9.190272e-01	-2.781118e-02
1.100000e-01	-4.459160e-01	4.447560e-01	-9.463853e-01	-9.191087e-01	-2.727665e-02
1.110000e-01	-4.465343e-01	4.457271e-01	-9.470580e-01	-9.200633e-01	-2.699467e-02
1.120000e-01	-4.473054e-01	4.467415e-01	-9.485732e-01	-9.215920e-01	-2.698117e-02
1.130000e-01	-4.480608e-01	4.476313e-01	-9.505431e-01	-9.233324e-01	-2.721074e-02
1.140000e-01	-4.485935e-01	4.481851e-01	-9.525151e-01	-9.248510e-01	-2.766409e-02
1.150000e-01	-4.488887e-01	4.484435e-01	-9.541874e-01	-9.259824e-01	-2.820497e-02
1.160000e-01	-4.490659e-01	4.485372e-01	-9.556701e-01	-9.269009e-01	-2.876920e-02
1.170000e-01	-4.495242e-01	4.488748e-01	-9.577365e-01	-9.283925e-01	-2.934402e-02
1.180000e-01	-4.505406e-01	4.497332e-01	-9.609601e-01	-9.310207e-01	-2.993943e-02
1.190000e-01	-4.522597e-01	4.512627e-01	-9.656505e-01	-9.350849e-01	-3.056559e-02
1.200000e-01	-4.545531e-01	4.533098e-01	-9.716772e-01	-9.403917e-01	-3.128547e-02
1.210000e-01	-4.570747e-01	4.555263e-01	-9.784539e-01	-9.463017e-01	-3.215225e-02
1.220000e-01	-4.595594e-01	4.576380e-01	-9.854930e-01	-9.523059e-01	-3.318712e-02
1.230000e-01	-4.618407e-01	4.594869e-01	-9.924123e-01	-9.580468e-01	-3.436549e-02
1.240000e-01	-4.639365e-01	4.610956e-01	-9.991452e-01	-9.635091e-01	-3.563613e-02
1.250000e-01	-4.659330e-01	4.625573e-01	-1.005756e+00	-9.688110e-01	-3.694511e-02
1.260000e-01	-4.680584e-01	4.641325e-01	-1.012490e+00	-9.743034e-01	-3.818654e-02
1.270000e-01	-4.703370e-01	4.658752e-01	-1.019230e+00	-9.799520e-01	-3.927802e-02
1.280000e-01	-4.727973e-01	4.678058e-01	-1.026081e+00	-9.858379e-01	-4.024339e-02
1.290000e-01	-4.752436e-01	4.697081e-01	-1.032677e+00	-9.915820e-01	-4.109480e-02
1.300000e-01	-4.775704e-01	4.714535e-01	-1.038960e+00	-9.970506e-01	-4.190986e-02
1.310000e-01	-4.799526e-01	4.732043e-01	-1.045262e+00	-1.002583e+00	-4.267813e-02
1.320000e-01	-4.825350e-01	4.750959e-01	-1.051889e+00	-1.008479e+00	-4.340939e-02
1.330000e-01	-4.852069e-01	4.770477e-01	-1.058565e+00	-1.014490e+00	-4.407583e-02
1.340000e-01	-4.878560e-01	4.790068e-01	-1.065003e+00	-1.020358e+00	-4.464552e-02
1.350000e-01	-4.906196e-01	4.811215e-01	-1.071478e+00	-1.026358e+00	-4.511914e-02
1.360000e-01	-4.933747e-01	4.833063e-01	-1.077651e+00	-1.032200e+00	-4.545073e-02
1.370000e-01	-4.959597e-01	4.854268e-01	-1.083070e+00	-1.037495e+00	-4.557509e-02
1.380000e-01	-4.983711e-01	4.874826e-01	-1.087716e+00	-1.042229e+00	-4.548702e-02
1.390000e-01	-5.006497e-01	4.895260e-01	-1.091641e+00	-1.046470e+00	-4.517062e-02
1.400000e-01	-5.027957e-01	4.915691e-01	-1.094813e+00	-1.050202e+00	-4.461097e-02
1.410000e-01	-5.050579e-01	4.938554e-01	-1.097750e+00	-1.053933e+00	-4.381727e-02
1.420000e-01	-5.072263e-01	4.961381e-01	-1.100376e+00	-1.057414e+00	-4.296151e-02
1.430000e-01	-5.092712e-01	4.983813e-01	-1.102666e+00	-1.060604e+00	-4.206176e-02
1.440000e-01	-5.108061e-01	5.001782e-01	-1.104004e+00	-1.062808e+00	-4.119606e-02
1.450000e-01	-5.115162e-01	5.012153e-01	-1.103837e+00	-1.063435e+00	-4.040228e-02
1.460000e-01	-5.116433e-01	5.017403e-01	-1.102627e+00	-1.062957e+00	-3.966998e-02
1.470000e-01	-5.112317e-01	5.017453e-01	-1.100568e+00	-1.061516e+00	-3.905226e-02
1.480000e-01	-5.105377e-01	5.014345e-01	-1.098211e+00	-1.059643e+00	-3.856765e-02
1.490000e-01	-5.097343e-01	5.010404e-01	-1.095717e+00	-1.057593e+00	-3.812445e-02
1.500000e-01	-5.087230e-01	5.004950e-01	-1.092840e+00	-1.055143e+00	-3.769690e-02
1.510000e-01	-5.078109e-01	5.001583e-01	-1.090034e+00	-1.052828e+00	-3.720614e-02
1.520000e-01	-5.071836e-01	5.002537e-01	-1.087551e+00	-1.050959e+00	-3.659176e-02
1.530000e-01	-5.065179e-01	5.004476e-01	-1.084837e+00	-1.048936e+00	-3.590049e-02
1.540000e-01	-5.049591e-01	4.997959e-01	-1.080556e+00	-1.045237e+00	-3.531908e-02
1.550000e-01	-5.022336e-01	4.979642e-01	-1.074318e+00	-1.039393e+00	-3.492534e-02
1.560000e-01	-4.986002e-01	4.951772e-01	-1.066641e+00	-1.031921e+00	-3.472039e-02
1.570000e-01	-4.948774e-01	4.922525e-01	-1.058984e+00	-1.024369e+00	-3.461467e-02
1.580000e-01	-4.915324e-01	4.896218e-01	-1.052232e+00	-1.017649e+00	-3.458383e-02
1.590000e-01	-4.888920e-01	4.875975e-01	-1.046966e+00	-1.012375e+00	-3.459103e-02
1.600000e-01	-4.868457e-01	4.860410e-01	-1.043036e+00	-1.008364e+00	-3.467233e-02
1.610000e-01	-4.853246e-01	4.848523e-01	-1.040294e+00	-1.005472e+00	-3.482263e-02
1.620000e-01	-4.842431e-01	4.839011e-01	-1.038631e+00	-1.003559e+00	-3.507243e-02
1.630000e-01	-4.837292e-01	4.832404e-01	-1.038377e+00	-1.002918e+00	-3.545949e-02
1.640000e-01	-4.837172e-01	4.827530e-01	-1.039478e+00	-1.003456e+00	-3.602207e-02
1.650000e-01	-4.842748e-01	4.825760e-01	-1.041813e+00	-1.005181e+00	-3.663161e-02
1.660000e-01	-4.858439e-01	4.833028e-01	-1.045809e+00	-1.008749e+00	-3.706076e-02
1.670000e-01	-4.885107e-01	4.851601e-01	-1.051333e+00	-1.014177e+00	-3.715587e-02
1.680000e-01	-4.922717e-01	4.882528e-01	-1.058281e+00	-1.021412e+00	-3.686886e-02
1.690000e-01	-4.971062e-01	4.926035e-01	-1.066719e+00	-1.030466e+00	-3.625347e-02
1.700000e-01	-5.025859e-01	4.977676e-01	-1.076148e+00	-1.040660e+00	-3.548812e-02
1.710000e-01	-5.081229e-01	5.030914e-01	-1.085792e+00	-1.051019e+00	-3.477321e-02
1.720000e-01	-5.129616e-01	5.076969e-01	-1.094634e+00	-1.060279e+00	-3.435564e-02
1.730000e-01	-5.165366e-01	5.109378e-01	-1.101764e+00	-1.067418e+00	-3.434530e-02
1.740000e-01	-5.189185e-01	5.129114e-01	-1.107116e+00	-1.072477e+00	-3.463976e-02
1.750000e-01	-5.202919e-01	5.139170e-01	-1.110597e+00	-1.075590e+00	-3.500659e-02
1.760000e-01	-5.206320e-01	5.140511e-01	-1.111853e+00	-1.076559e+00	-3.529456e-02
1.770000e-01	-5.198955e-01	5.133506e-01	-1.110650e+00	-1.075221e+00	-3.542977e-02
1.780000e-01	-5.181243e-01	5.118750e-01	-1.107049e+00	-1.071649e+00	-3.540040e-02
1.790000e-01	-5.155608e-01	5.098278e-01	-1.101547e+00	-1.066334e+00	-3.521249e-02
1.800000e-01	-5.123670e-01	5.072991e-01	-1.094648e+00	-1.059691e+00	-3.495702e-02
1.810000e-01	-5.087098e-01	5.043746e-01	-1.086868e+00	-1.052144e+00	-3.472420e-02
1.820000e-01	-5.049936e-01	5.014075e-01	-1.079028e+00	-1.044508e+00	-3.452062e-02
1.830000e-01	-5.019302e-01	4.990714e-01	-1.072345e+00	-1.038103e+00	-3.424222e-02
1.840000e-01	-4.998064e-01	4.975932e-01	-1.067428e+00	-1.033521e+00	-3.390779e-02
1.850000e-01	-4.984703e-01	4.967833e-01	-1.064103e+00	-1.030522e+00	-3.358101e-02
1.860000e-01	-4.975481e-01	4.963073e-01	-1.061720e+00	-1.028408e+00	-3.331170e-02
1.870000e-01	-4.968964e-01	4.960839e-01	-1.059964e+00	-1.026878e+00	-3.308558e-02
1.880000e-01	-4.965410e-01	4.961731e-01	-1.058882e+00	-1.025982e+00	-3.290001e-02
1.890000e-01	-4.966568e-01	4.967248e-01	-1.058831e+00	-1.026072e+00	-3.275888e-02
1.900000e-01	-4.972458e-01	4.976611e-01	-1.059979e+00	-1.027235e+00	-3.274385e-02
1.910000e-01	-4.982857e-01	4.989027e-01	-1.062361e+00	-1.029466e+00	-3.289469e-02
1.920000e-01	-4.996603e-01	5.003096e-01	-1.065818e+00	-1.032569e+00	-3.324856e-02
1.930000e-01	-5.012157e-01	5.017536e-01	-1.069947e+00	-1.036189e+00	-3.375785e-02
1.940000e-01	-5.029362e-01	5.032500e-01	-1.074583e+00	-1.040228e+00	-3.435531e-02
1.950000e-01	-5.048619e-01	5.048897e-01	-1.079626e+00	-1.044675e+00	-3.495080e-02
1.960000e-01	-5.069146e-01	5.066045e-01	-1.084898e+00	-1.049364e+00	-3.553445e-02
1.970000e-01	-5.091527e-01	5.084486e-01	-1.090551e+00	-1.054428e+00	-3.612288e-02
1.980000e-01	-5.116940e-01	5.105407e-01	-1.096823e+00	-1.060106e+00	-3.671773e-02
1.990000e-01	-5.146864e-01	5.130246e-01	-1.104039e+00	-1.066706e+00	-3.733310e-02
2.000000e-01	-5.180694e-01	5.158159e-01	-1.112202e+00	-1.074170e+00	-3.803160e-02
2.010000e-01	-5.217707e-01	5.188265e-01	-1.121243e+00	-1.082392e+00	-3.885071e-02
2.020000e-01	-5.256585e-01	5.219059e-01	-1.130953e+00	-1.091135e+00	-3.981803e-02
2.030000e-01	-5.297343e-01	5.250562e-01	-1.141322e+00	-1.100395e+00	-4.092660e-02
2.040000e-01	-5.339101e-01	5.281869e-01	-1.152194e+00	-1.110007e+00	-4.218703e-02
2.050000e-01	-5.380133e-01	5.311543e-01	-1.163117e+00	-1.119572e+00	-4.354501e-02
2.060000e-01	-5.419908e-01	5.339651e-01	-1.173777e+00	-1.128879e+00	-4.489750e-02
2.070000e-01	-5.459135e-01	5.367493e-01	-1.184076e+00	-1.137952e+00	-4.612473e-02
2.080000e-01	-5.497087e-01	5.394776e-01	-1.193753e+00	-1.146585e+00	-4.716794e-02
2.090000e-01	-5.532306e-01	5.420194e-01	-1.202498e+00	-1.154480e+00	-4.801860e-02
2.100000e-01	-5.563222e-01	5.442340e-01	-1.210047e+00	-1.161346e+00	-4.870146e-02
2.110000e-01	-5.589698e-01	5.461081e-01	-1.216431e+00	-1.167186e+00	-4.924596e-02
2.120000e-01	-5.611718e-01	5.476541e-01	-1.221693e+00	-1.172018e+00	-4.967455e-02
2.130000e-01	-5.629865e-01	5.489505e-01	-1.225914e+00	-1.175943e+00	-4.997037e-02
2.140000e-01	-5.644184e-01	5.500284e-01	-1.229077e+00	-1.178957e+00	-5.011992e-02
2.150000e-01	-5.653919e-01	5.508257e-01	-1.231063e+00	-1.180923e+00	-5.013961e-02
2.160000e-01	-5.656806e-01	5.511056e-01	-1.231563e+00	-1.181462e+00	-5.010100e-02
2.170000e-01	-5.651213e-01	5.506737e-01	-1.230413e+00	-1.180328e+00	-5.008521e-02
2.180000e-01	-5.637746e-01	5.495458e-01	-1.227861e+00	-1.177705e+00	-5.015571e-02
2.190000e-01	-5.619164e-01	5.479592e-01	-1.224444e+00	-1.174139e+00	-5.030577e-02
2.200000e-01	-5.598664e-01	5.461946e-01	-1.220783e+00	-1.170258e+00	-5.052484e-02
2.210000e-01	-5.578518e-01	5.444496e-01	-1.217292e+00	-1.166498e+00	-5.079414e-02
2.220000e-01	-5.560116e-01	5.428453e-01	-1.214220e+00	-1.163122e+00	-5.109849e-02
2.230000e-01	-5.545209e-01	5.415535e-01	-1.211842e+00	-1.160442e+00	-5.140029e-02
2.240000e-01	-5.534773e-01	5.406573e-01	-1.210337e+00	-1.158646e+00	-5.169102e-02
2.250000e-01	-5.529197e-01	5.401844e-01	-1.209789e+00	-1.157814e+00	-5.197474e-02
2.260000e-01	-5.528316e-01	5.401126e-01	-1.210186e+00	-1.157925e+00	-5.226124e-02
2.270000e-01	-5.532587e-01	5.405009e-01	-1.211548e+00	-1.159033e+00	-5.251557e-02
2.280000e-01	-5.542225e-01	5.413862e-01	-1.213880e+00	-1.161163e+00	-5.271744e-02
2.290000e-01	-5.556954e-01	5.427561e-01	-1.217078e+00	-1.164234e+00	-5.284345e-02
2.300000e-01	-5.575692e-01	5.445102e-01	-1.220948e+00	-1.168043e+00	-5.290497e-02
2.310000e-01	-5.597290e-01	5.465554e-01	-1.225262e+00	-1.172360e+00	-5.290192e-02
2.320000e-01	-5.620164e-01	5.487352e-01	-1.229750e+00	-1.176892e+00	-5.285873e-02
2.330000e-01	-5.643023e-01	5.509288e-01	-1.234164e+00	-1.181385e+00	-5.277985e-02
2.340000e-01	-5.664699e-01	5.530216e-01	-1.238276e+00	-1.185608e+00	-5.266814e-02
2.350000e-01	-5.684701e-01	5.549797e-01	-1.241978e+00	-1.189459e+00	-5.251876e-02
2.360000e-01	-5.702426e-01	5.567497e-01	-1.245131e+00	-1.192808e+00	-5.232302e-02
2.370000e-01	-5.717707e-01	5.583226e-01	-1.247691e+00	-1.195616e+00	-5.207490e-02
2.380000e-01	-5.730304e-01	5.596637e-01	-1.249630e+00	-1.197845e+00	-5.178446e-02
2.390000e-01	-5.740095e-01	5.607599e-01	-1.250956e+00	-1.199488e+00	-5.146841e-02
2.400000e-01	-5.746798e-01	5.615702e-01	-1.251636e+00	-1.200498e+00	-5.113819e-02
2.410000e-01	-5.750357e-01	5.620843e-01	-1.251648e+00	-1.200860e+00	-5.078847e-02
2.420000e-01	-5.751162e-01	5.623429e-01	-1.251077e+00	-1.200655e+00	-5.042247e-02
2.430000e-01	-5.749578e-01	5.623892e-01	-1.249976e+00	-1.199946e+00	-5.003016e-02
2.440000e-01	-5.746220e-01	5.622793e-01	-1.248461e+00	-1.198852e+00	-4.960830e-02
2.450000e-01	-5.741540e-01	5.620553e-01	-1.246611e+00	-1.197460e+00	-4.915157e-02
2.460000e-01	-5.735915e-01	5.617483e-01	-1.244561e+00	-1.195872e+00	-4.868913e-02
2.470000e-01	-5.729662e-01	5.613859e-01	-1.242382e+00	-1.194157e+00	-4.822463e-02
2.480000e-01	-5.723027e-01	5.609822e-01	-1.240140e+00	-1.192373e+00	-4.776707e-02
2.490000e-01	-5.716278e-01	5.605607e-01	-1.237899e+00	-1.190577e+00	-4.732197e-02
2.500000e-01	-5.709700e-01	5.601464e-01	-1.235764e+00	-1.188852e+00	-4.691207e-02
2.510000e-01	-5.703447e-01	5.597516e-01	-1.233745e+00	-1.187217e+00	-4.652760e-02
2.520000e-01	-5.697639e-01	5.593827e-01	-1.231857e+00	-1.185692e+00	-4.616457e-02
2.530000e-01	-5.692520e-01	5.590685e-01	-1.230158e+00	-1.184331e+00	-4.582722e-02
2.540000e-01	-5.688185e-01	5.588167e-01	-1.228691e+00	-1.183164e+00	-4.552707e-02
2.550000e-01	-5.684578e-01	5.586200e-01	-1.227433e+00	-1.182174e+00	-4.525867e-02
2.560000e-01	-5.681473e-01	5.584510e-01	-1.226343e+00	-1.181319e+00	-4.502440e-02
2.570000e-01	-5.678936e-01	5.583243e-01	-1.225436e+00	-1.180612e+00	-4.482462e-02
2.580000e-01	-5.676838e-01	5.582267e-01	-1.224686e+00	-1.180027e+00	-4.465939e-02
2.590000e-01	-5.675039e-01	5.581517e-01	-1.224029e+00	-1.179519e+00	-4.451075e-02
2.600000e-01	-5.673479e-01	5.580920e-01	-1.223466e+00	-1.179081e+00	-4.438501e-02
2.610000e-01	-5.671996e-01	5.580363e-01	-1.222956e+00	-1.178678e+00	-4.427861e-02
2.620000e-01	-5.670468e-01	5.579690e-01	-1.222497e+00	-1.178295e+00	-4.420190e-02
2.630000e-01	-5.668724e-01	5.578763e-01	-1.222030e+00	-1.177887e+00	-4.414237e-02
2.640000e-01	-5.666946e-01	5.577745e-01	-1.221602e+00	-1.177496e+00	-4.410659e-02
2.650000e-01	-5.665022e-01	5.576577e-01	-1.221168e+00	-1.177086e+00	-4.408157e-02
2.660000e-01	-5.663044e-01	5.575307e-01	-1.220759e+00	-1.176684e+00	-4.407496e-02
2.670000e-01	-5.660767e-01	5.573734e-01	-1.220311e+00	-1.176232e+00	-4.407891e-02
2.680000e-01	-5.658318e-01	5.571878e-01	-1.219875e+00	-1.175769e+00	-4.410571e-02
2.690000e-01	-5.655636e-01	5.569718e-01	-1.219405e+00	-1.175266e+00	-4.413863e-02
2.700000e-01	-5.652890e-01	5.567393e-01	-1.218958e+00	-1.174768e+00	-4.418989e-02
2.710000e-01	-5.650115e-01	5.564996e-01	-1.218513e+00	-1.174268e+00	-4.424510e-02
2.720000e-01	-5.647482e-01	5.562607e-01	-1.218123e+00	-1.173810e+00	-4.431343e-02
2.730000e-01	-5.645002e-01	5.560259e-01	-1.217766e+00	-1.173383e+00	-4.438287e-02
2.740000e-01	-5.642868e-01	5.558083e-01	-1.217510e+00	-1.173042e+00	-4.446827e-02
2.750000e-01	-5.641028e-01	5.556092e-01	-1.217325e+00	-1.172765e+00	-4.455964e-02
2.760000e-01	-5.639700e-01	5.554434e-01	-1.217266e+00	-1.172603e+00	-4.466302e-02
2.770000e-01	-5.638747e-01	5.553036e-01	-1.217282e+00	-1.172516e+00	-4.476623e-02
2.780000e-01	-5.638366e-01	5.552041e-01	-1.217435e+00	-1.172554e+00	-4.488097e-02
2.790000e-01	-5.638435e-01	5.551403e-01	-1.217684e+00	-1.172685e+00	-4.499840e-02
2.800000e-01	-5.639129e-01	5.551229e-01	-1.218074e+00	-1.172950e+00	-4.512405e-02
2.810000e-01	-5.640269e-01	5.551410e-01	-1.218548e+00	-1.173301e+00	-4.524723e-02
2.820000e-01	-5.641963e-01	5.552011e-01	-1.219149e+00	-1.173771e+00	-4.537823e-02
2.830000e-01	-5.644038e-01	5.552949e-01	-1.219834e+00	-1.174321e+00	-4.551307e-02
2.840000e-01	-5.646608e-01	5.554289e-01	-1.220627e+00	-1.174974e+00	-4.565266e-02
2.850000e-01	-5.649433e-01	5.555863e-01	-1.221461e+00	-1.175674e+00	-4.578700e-02
2.860000e-01	-5.652608e-01	5.557746e-01	-1.222374e+00	-1.176448e+00	-4.592638e-02
2.870000e-01	-5.655852e-01	5.559733e-01	-1.223301e+00	-1.177235e+00	-4.606514e-02
2.880000e-01	-5.659248e-01	5.561870e-01	-1.224258e+00	-1.178054e+00	-4.620437e-02
2.890000e-01	-5.662495e-01	5.563911e-01	-1.225166e+00	-1.178832e+00	-4.633354e-02
2.900000e-01	-5.665775e-01	5.566021e-01	-1.226077e+00	-1.179616e+00	-4.646090e-02
2.910000e-01	-5.668782e-01	5.567966e-01	-1.226923e+00	-1.180340e+00	-4.658340e-02
2.920000e-01	-5.671720e-01	5.569916e-01	-1.227750e+00	-1.181047e+00	-4.670302e-02
2.930000e-01	-5.674270e-01	5.571597e-01	-1.228479e+00	-1.181666e+00	-4.681236e-02
2.940000e-01	-5.676660e-01	5.573185e-01	-1.229167e+00	-1.182250e+00	-4.691751e-02
2.950000e-01	-5.678586e-01	5.574442e-01	-1.229755e+00	-1.182736e+00	-4.701903e-02
2.960000e-01	-5.680366e-01	5.575651e-01	-1.230307e+00	-1.183190e+00	-4.711692e-02
2.970000e-01	-5.681657e-01	5.576494e-01	-1.230737e+00	-1.183534e+00	-4.720274e-02
2.980000e-01	-5.682770e-01	5.577210e-01	-1.231116e+00	-1.183835e+00	-4.728087e-02
2.990000e-01	-5.683441e-01	5.577609e-01	-1.231400e+00	-1.184044e+00	-4.735583e-02
3.000000e-01	-5.684083e-01	5.578042e-01	-1.231671e+00	-1.184244e+00	-4.742714e-02
3.010000e-01	-5.684359e-01	5.578189e-01	-1.231846e+00	-1.184359e+00	-4.748716e-02
3.020000e-01	-5.684759e-01	5.578476e-01	-1.232036e+00	-1.184494e+00	-4.754227e-02
3.030000e-01	-5.684970e-01	5.578658e-01	-1.232186e+00	-1.184590e+00	-4.759577e-02
3.040000e-01	-5.685401e-01	5.579050e-01	-1.232365e+00	-1.184723e+00	-4.764233e-02
3.050000e-01	-5.685672e-01	5.579330e-01	-1.232497e+00	-1.184816e+00	-4.768111e-02
3.060000e-01	-5.686263e-01	5.579896e-01	-1.232695e+00	-1.184974e+00	-4.772094e-02
3.070000e-01	-5.686759e-01	5.580403e-01	-1.232866e+00	-1.185109e+00	-4.775689e-02
3.080000e-01	-5.687635e-01	5.581245e-01	-1.233094e+00	-1.185311e+00	-4.778344e-02
3.090000e-01	-5.688475e-01	5.582071e-01	-1.233304e+00	-1.185499e+00	-4.780426e-02
3.100000e-01	-5.689758e-01	5.583290e-01	-1.233597e+00	-1.185774e+00	-4.782254e-02
3.110000e-01	-5.691006e-01	5.584518e-01	-1.233867e+00	-1.186034e+00	-4.783304e-02
3.120000e-01	-5.692629e-01	5.586063e-01	-1.234196e+00	-1.186361e+00	-4.783516e-02
3.130000e-01	-5.694147e-01	5.587531e-01	-1.234496e+00	-1.186663e+00	-4.783350e-02
3.140000e-01	-5.696005e-01	5.589292e-01	-1.234855e+00	-1.187028e+00	-4.782678e-02
3.150000e-01	-5.697656e-01	5.590910e-01	-1.235156e+00	-1.187344e+00	-4.781241e-02
3.160000e-01	-5.699516e-01	5.592699e-01	-1.235486e+00	-1.187695e+00	-4.779147e-02
3.170000e-01	-5.701147e-01	5.594308e-01	-1.235755e+00	-1.187992e+00	-4.776277e-02
3.180000e-01	-5.702901e-01	5.596015e-01	-1.236035e+00	-1.188308e+00	-4.772732e-02
3.190000e-01	-5.704321e-01	5.597463e-01	-1.236238e+00	-1.188551e+00	-4.768702e-02
3.200000e-01	-5.705814e-01	5.598968e-01	-1.236445e+00	-1.188804e+00	-4.764091e-02
3.210000e-01	-5.706921e-01	5.600165e-01	-1.236559e+00	-1.188972e+00	-4.758760e-02
3.220000e-01	-5.708021e-01	5.601345e-01	-1.236669e+00	-1.189137e+00	-4.753254e-02
3.230000e-01	-5.708708e-01	5.602212e-01	-1.236684e+00	-1.189213e+00	-4.747102e-02
3.240000e-01	-5.709328e-01	5.603007e-01	-1.236674e+00	-1.189270e+00	-4.740426e-02
3.250000e-01	-5.709493e-01	5.603453e-01	-1.236566e+00	-1.189232e+00	-4.733350e-02
3.260000e-01	-5.709631e-01	5.603850e-01	-1.236455e+00	-1.189191e+00	-4.726444e-02
3.270000e-01	-5.709268e-01	5.603844e-01	-1.236229e+00	-1.189042e+00	-4.718789e-02
3.280000e-01	-5.708861e-01	5.603759e-01	-1.235997e+00	-1.188885e+00	-4.711235e-02
3.290000e-01	-5.708067e-01	5.603393e-01	-1.235684e+00	-1.188649e+00	-4.703517e-02
3.300000e-01	-5.707323e-01	5.603037e-01	-1.235392e+00	-1.188428e+00	-4.696393e-02
3.310000e-01	-5.706206e-01	5.602396e-01	-1.235016e+00	-1.188129e+00	-4.688741e-02
3.320000e-01	-5.705138e-01	5.601763e-01	-1.234657e+00	-1.187842e+00	-4.681450e-02
3.330000e-01	-5.703795e-01	5.600919e-01	-1.234246e+00	-1.187502e+00	-4.674329e-02
3.340000e-01	-5.702570e-01	5.600132e-01	-1.233875e+00	-1.187195e+00	-4.668062e-02
3.350000e-01	-5.701112e-01	5.599184e-01	-1.233457e+00	-1.186840e+00	-4.661711e-02
3.360000e-01	-5.699816e-01	5.598335e-01	-1.233085e+00	-1.186524e+00	-4.656081e-02
3.370000e-01	-5.698327e-01	5.597336e-01	-1.232677e+00	-1.186171e+00	-4.650577e-02
3.380000e-01	-5.697086e-01	5.596501e-01	-1.232337e+00	-1.185877e+00	-4.645980e-02
3.390000e-01	-5.695714e-01	5.595589e-01	-1.231971e+00	-1.185557e+00	-4.641423e-02
3.400000e-01	-5.694595e-01	5.594855e-01	-1.231672e+00	-1.185296e+00	-4.637657e-02
3.410000e-01	-5.693360e-01	5.594038e-01	-1.231348e+00	-1.185010e+00	-4.633795e-02
3.420000e-01	-5.692421e-01	5.593413e-01	-1.231099e+00	-1.184791e+00	-4.630734e-02
3.430000e-01	-5.691367e-01	5.592708e-01	-1.230835e+00	-1.184554e+00	-4.628063e-02
3.440000e-01	-5.690588e-01	5.592205e-01	-1.230638e+00	-1.184378e+00	-4.626032e-02
3.450000e-01	-5.689678e-01	5.591586e-01	-1.230417e+00	-1.184176e+00	-4.624066e-02
3.460000e-01	-5.689060e-01	5.591146e-01	-1.230271e+00	-1.184042e+00	-4.622957e-02
3.470000e-01	-5.688340e-01	5.590653e-01	-1.230112e+00	-1.183890e+00	-4.622190e-02
3.480000e-01	-5.687896e-01	5.590366e-01	-1.230011e+00	-1.183795e+00	-4.621603e-02
3.490000e-01	-5.687306e-01	5.589943e-01	-1.229879e+00	-1.183670e+00	-4.620874e-02
3.500000e-01	-5.686993e-01	5.589720e-01	-1.229818e+00	-1.183609e+00	-4.620997e-02
3.510000e-01	-5.686529e-01	5.589390e-01	-1.229730e+00	-1.183518e+00	-4.621188e-02
3.520000e-01	-5.686309e-01	5.589204e-01	-1.229688e+00	-1.183475e+00	-4.621325e-02
3.530000e-01	-5.685937e-01	5.588901e-01	-1.229619e+00	-1.183403e+00	-4.621569e-02
3.540000e-01	-5.685839e-01	5.588802e-01	-1.229620e+00	-1.183394e+00	-4.622599e-02
3.550000e-01	-5.685551e-01	5.588545e-01	-1.229579e+00	-1.183344e+00	-4.623416e-02
3.560000e-01	-5.685490e-01	5.588438e-01	-1.229582e+00	-1.183340e+00	-4.624208e-02
3.570000e-01	-5.685256e-01	5.588211e-01	-1.229558e+00	-1.183305e+00	-4.625364e-02
3.580000e-01	-5.685267e-01	5.588136e-01	-1.229592e+00	-1.183322e+00	-4.626915e-02
3.590000e-01	-5.685093e-01	5.587927e-01	-1.229580e+00	-1.183299e+00	-4.628075e-02
3.600000e-01	-5.685144e-01	5.587879e-01	-1.229618e+00	-1.183323e+00	-4.629454e-02