0.0005 	0.379949 	1.37923e-08 	-8.57093e-11
0.0015 	0.338074 	-6.06256e-09 	1.76169e-10
0.0025 	0.364681 	-5.33807e-08 	4.77434e-10
0.0035 	0.469953 	-4.46231e-08 	2.84521e-10
0.0045 	0.530666 	9.96574e-09 	-1.44368e-10
0.0055 	0.488938 	3.86796e-08 	-2.77931e-10
0.0065 	0.421056 	1.35867e-08 	-1.3941e-11
0.0075 	0.418338 	-2.81377e-08 	2.87373e-10
0.0085 	0.48139 	-3.91629e-08 	3.0865e-10
0.0095 	0.543798 	-1.85265e-08 	1.2319e-10
0.0105 	0.562846 	2.79419e-09 	-2.52391e-11
0.0115 	0.551317 	6.9234e-09 	-3.30509e-11
0.0125 	0.54152 	-1.44441e-09 	4.02572e-11
0.0135 	0.54943 	-9.76889e-09 	9.69507e-11
0.0145 	0.569089 	-1.1242e-08 	9.78256e-11
0.0155 	0.587593 	-7.86867e-09 	6.78934e-11
0.0165 	0.59906 	-4.53947e-09 	4.37781e-11
0.0175 	0.60576 	-3.48088e-09 	3.78392e-11
0.0185 	0.611912 	-3.97526e-09 	4.20874e-11
0.0195 	0.619389 	-4.59683e-09 	4.59228e-11
0.0205 	0.627736 	-4.68541e-09 	4.54451e-11
0.0215 	0.635919 	-4.36167e-09 	4.21667e-11
0.0225 	0.643418 	-3.9541e-09 	3.85637e-11
0.0235 	0.650258 	-3.64029e-09 	3.57921e-11
0.0245 	0.656639 	-3.43067e-09 	3.38232e-11
0.0255 	0.662713 	-3.27521e-09 	3.22589e-11
0.0265 	0.668537 	-3.13335e-09 	3.07999e-11
0.0275 	0.674119 	-2.988e-09 	2.93215e-11
0.0285 	0.679452 	-2.83708e-09 	2.78103e-11
0.0295 	0.684526 	-2.68466e-09 	2.6301e-11
0.0305 	0.689341 	-2.53587e-09 	2.48363e-11
0.0315 	0.693905 	-2.39429e-09 	2.34443e-11
0.0325 	0.698229 	-2.26097e-09 	2.21311e-11
0.0335 	0.702327 	-2.13498e-09 	2.08869e-11
0.0345 	0.706209 	-2.01472e-09 	1.96973e-11
0.0355 	0.709884 	-1.89893e-09 	1.85522e-11
0.0365 	0.713357 	-1.78712e-09 	1.74478e-11
0.0375 	0.716637 	-1.67931e-09 	1.63842e-11
0.0385 	0.719728 	-1.57565e-09 	1.53626e-11
0.0395 	0.722638 	-1.47623e-09 	1.43834e-11
0.0405 	0.725373 	-1.381e-09 	1.3446e-11
0.0415 	0.727939 	-1.28984e-09 	1.2549e-11
0.0425 	0.730344 	-1.20261e-09 	1.16915e-11
0.0435 	0.732593 	-1.11927e-09 	1.08728e-11
0.0445 	0.734692 	-1.03975e-09 	1.00921e-11
0.0455 	0.736649 	-9.63949e-10 	9.34853e-12
0.0465 	0.738468 	-8.91835e-10 	8.64205e-12
0.0475 	0.740157 	-8.23441e-10 	7.97268e-12
0.0485 	0.741721 	-7.58719e-10 	7.33959e-12
0.0495 	0.743167 	-6.97539e-10 	6.74173e-12
0.0505 	0.7445 	-6.39841e-10 	6.17864e-12
0.0515 	0.745726 	-5.85604e-10 	5.64988e-12
0.0525 	0.746853 	-5.34759e-10 	5.15461e-12
0.0535 	0.747884 	-4.87201e-10 	4.69185e-12
0.0545 	0.748827 	-4.42829e-10 	4.26057e-12
0.0555 	0.749687 	-4.01534e-10 	3.85958e-12
0.0565 	0.750469 	-3.63203e-10 	3.48786e-12
0.0575 	0.751178 	-3.27761e-10 	3.14465e-12
0.0585 	0.751821 	-2.95112e-10 	2.8287e-12
0.0595 	0.752401 	-2.65071e-10 	2.53812e-12
0.0605 	0.752924 	-2.37452e-10 	2.27142e-12
0.0615 	0.753394 	-2.12185e-10 	2.02798e-12
0.0625 	0.753815 	-1.89223e-10 	1.80684e-12
0.0635 	0.754192 	-1.6837e-10 	1.60597e-12
0.0645 	0.754528 	-1.49395e-10 	1.42345e-12
0.0655 	0.754828 	-1.32199e-10 	1.25851e-12
0.0665 	0.755093 	-1.16746e-10 	1.11047e-12
0.0675 	0.755329 	-1.02904e-10 	9.77797e-13
0.0685 	0.755538 	-9.04846e-11 	8.58819e-13
0.0695 	0.755721 	-7.93404e-11 	7.52264e-13
0.0705 	0.755883 	-6.93828e-11 	6.57262e-13
0.0715 	0.756025 	-6.05522e-11 	5.73153e-13
0.0725 	0.75615 	-5.27714e-11 	4.99067e-13
0.0735 	0.756258 	-4.59033e-11 	4.33554e-13
0.0745 	0.756353 	-3.97878e-11 	3.75294e-13
0.0755 	0.756436 	-3.43684e-11 	3.23987e-13
0.0765 	0.756507 	-2.96669e-11 	2.79592e-13
0.0775 	0.756569 	-2.56192e-11 	2.41104e-13
0.0785 	0.756623 	-2.20456e-11 	2.07052e-13
0.0795 	0.756669 	-1.88555e-11 	1.76951e-13
0.0805 	0.756709 	-1.61024e-11 	1.5119e-13
0.0815 	0.756743 	-1.37983e-11 	1.29484e-13
0.0825 	0.756772 	-1.18159e-11 	1.1054e-13
0.0835 	0.756798 	-1.00246e-11 	9.35851e-14
0.0845 	0.756819 	-8.4544e-12 	7.90473e-14
0.0855 	0.756837 	-7.17614e-12 	6.71622e-14
0.0865 	0.756853 	-6.12222e-12 	5.7099e-14
0.0875 	0.756866 	-5.17278e-12 	4.80484e-14
0.0885 	0.756877 	-4.31815e-12 	4.01319e-14
0.0895 	0.756887 	-3.61473e-12 	3.36951e-14
0.0905 	0.756895 	-3.05978e-12 	2.84872e-14
0.0915 	0.756901 	-2.59109e-12 	2.40031e-14
0.0925 	0.756907 	-2.16412e-12 	1.99697e-14
0.0935 	0.756912 	-1.77632e-12 	1.63992e-14
0.0945 	0.756916 	-1.46289e-12 	1.35842e-14
0.0955 	0.756919 	-1.24507e-12 	1.15772e-14
0.0965 	0.756922 	-1.06791e-12 	9.79621e-15
0.0975 	0.756924 	-8.66812e-13 	7.84877e-15
0.0985 	0.756926 	-6.76592e-13 	6.24283e-15
0.0995 	0.756928 	-5.72873e-13 	5.3755e-15
0.1005 	0.756929 	-5.13945e-13 	4.68805e-15
0.1015 	0.75693 	-4.1362e-13 	3.66912e-15
0.1025 	0.756931 	-2.98436e-13 	2.71861e-15
0.1035 	0.756932 	-2.45991e-13 	2.34645e-15
0.1045 	0.756932 	-2.41196e-13 	2.20837e-15
0.1055 	0.756933 	-2.0163e-13 	1.72875e-15
0.1065 	0.756934 	-1.25497e-13 	1.09932e-15
0.1075 	0.756934 	-8.83703e-14 	8.97982e-16
0.1085 	0.756934 	-1.07469e-13 	1.03726e-15
0.1095 	0.756934 	-1.07996e-13 	8.80715e-16
0.1105 	0.756935 	-5.28139e-14 	3.82233e-16
0.1115 	0.756935 	-9.19751e-15 	1.56975e-16
0.1125 	0.756934 	-2.95138e-14 	3.77976e-16
0.1135 	0.756935 	-6.07232e-14 	5.04457e-16
0.1145 	0.756935 	-3.95926e-14 	2.54193e-16
0.1155 	0.756935 	2.96689e-15 	-3.81572e-17
0.1165 	0.756935 	1.39561e-14 	-5.89584e-17
0.1175 	0.756935 	-6.95391e-15 	1.22444e-16
0.1185 	0.756935 	-2.70941e-14 	2.19785e-16
0.1195 	0.756935 	-1.68172e-14 	8.84856e-17
0.1205 	0.756935 	1.28151e-14 	-1.30027e-16
0.1215 	0.756935 	2.11153e-14 	-1.40697e-16
0.1225 	0.756935 	-6.19058e-15 	1.04227e-16
0.1235 	0.756935 	-2.57603e-14 	1.98192e-16
0.1245 	0.756935 	-4.73604e-15 	-1.67239e-17
0.1255 	0.756935 	1.48353e-14 	-1.23195e-16
0.1265 	0.756935 	1.28494e-15 	2.7017e-17
0.1275 	0.756935 	-8.7419e-15 	7.2502e-17
0.1285 	0.756935 	3.07414e-15 	-2.72976e-17
0.1295 	0.756935 	-1.01914e-15 	4.34522e-17
0.1305 	0.756935 	-2.32275e-14 	1.87193e-16
0.1315 	0.756935 	-1.73946e-14 	9.42306e-17
0.1325 	0.756935 	1.40604e-14 	-1.24342e-16
0.1335 	0.756935 	2.36998e-14 	-1.28965e-16
0.1345 	0.756935 	-4.5605e-15 	1.12328e-16
0.1355 	0.756935 	-3.19917e-14 	2.49036e-16
0.1365 	0.756935 	-1.77464e-14 	7.78652e-17
0.1375 	0.756935 	1.96741e-14 	-1.69241e-16
0.1385 	0.756935 	3.08949e-14 	-1.63621e-16
0.1395 	0.756935 	3.85568e-18 	9.8115e-17
0.1405 	0.756935 	-3.18408e-14 	2.42514e-16
0.1415 	0.756935 	-1.62894e-14 	3.17366e-17
0.1425 	0.756935 	2.9511e-14 	-2.58415e-16
0.1435 	0.756935 	3.69799e-14 	-1.77952e-16
0.1445 	0.756935 	-1.45997e-14 	2.09481e-16
0.1455 	0.756935 	-4.55201e-14 	2.75542e-16
0.1465 	0.756935 	8.28676e-16 	-1.2858e-16
0.1475 	0.756935 	4.53119e-14 	-3.1402e-16
0.1485 	0.756935 	9.1339e-15 	4.24617e-17
0.1495 	0.756935 	-4.45396e-14 	3.24327e-16
0.1505 	0.756935 	-2.51923e-14 	7.1851e-17
0.1515 	0.756935 	2.89495e-14 	-2.74713e-16
0.1525 	0.756935 	2.80763e-14 	-1.38461e-16
0.1535 	0.756935 	-2.34698e-14 	2.28784e-16
0.1545 	0.756935 	-3.85979e-14 	2.13205e-16
0.1555 	0.756935 	3.83816e-15 	-1.27687e-16
0.1565 	0.756935 	3.6263e-14 	-2.52901e-16
0.1575 	0.756935 	1.09163e-14 	1.74869e-18
0.1585 	0.756935 	-3.09928e-14 	2.31607e-16
0.1595 	0.756935 	-2.23089e-14 	8.37296e-17
0.1605 	0.756935 	2.32765e-14 	-2.18808e-16
0.1615 	0.756935 	3.36807e-14 	-1.86155e-16
0.1625 	0.756935 	-7.15052e-15 	1.12122e-16
0.1635 	0.756935 	-2.68807e-14 	1.63248e-16
0.1645 	0.756935 	5.14335e-15 	-9.06096e-17
0.1655 	0.756935 	3.00717e-14 	-1.76e-16
0.1665 	0.756935 	1.90882e-15 	6.25637e-17
0.1675 	0.756935 	-2.85502e-14 	1.82897e-16
0.1685 	0.756935 	-3.67643e-15 	-4.56088e-17
0.1695 	0.756935 	3.45356e-14 	-2.35439e-16
0.1705 	0.756935 	1.79131e-14 	-3.19671e-17
0.1715 	0.756935 	-3.23905e-14 	2.65746e-16
0.1725 	0.756935 	-3.49697e-14 	1.64561e-16
0.1735 	0.756935 	1.7383e-14 	-1.93055e-16
0.1745 	0.756935 	4.32669e-14 	-2.54812e-16
0.1755 	0.756935 	3.21302e-15 	7.75641e-17
0.1765 	0.756935 	-4.27786e-14 	3.03888e-16
0.1775 	0.756935 	-2.58922e-14 	7.67739e-17
0.1785 	0.756935 	2.97804e-14 	-2.67386e-16
0.1795 	0.756935 	4.26207e-14 	-2.30693e-16
0.1805 	0.756935 	-2.64735e-15 	9.89041e-17
0.1815 	0.756935 	-3.62944e-14 	2.30214e-16
0.1825 	0.756935 	-1.33974e-14 	1.278e-17
0.1835 	0.756935 	2.46857e-14 	-1.89546e-16
0.1845 	0.756935 	2.05532e-14 	-7.94557e-17
0.1855 	0.756935 	-1.54678e-14 	1.54448e-16
0.1865 	0.756935 	-2.98174e-14 	1.74976e-16
0.1875 	0.756935 	-7.63405e-15 	-4.10323e-18
0.1885 	0.756935 	1.39017e-14 	-1.01496e-16
0.1895 	0.756935 	6.65437e-15 	-4.92104e-18
0.1905 	0.756935 	-1.25956e-14 	1.12398e-16
0.1915 	0.756935 	-1.46118e-14 	8.28202e-17
0.1925 	0.756935 	6.79783e-16 	-3.52825e-17
0.1935 	0.756935 	1.12704e-14 	-8.52865e-17
0.1945 	0.756935 	7.22277e-15 	-3.49751e-17
0.1955 	0.756935 	-7.98335e-16 	2.10447e-17
0.1965 	0.756935 	-1.14656e-15 	8.77149e-18
0.1975 	0.756935 	6.43718e-15 	-5.90876e-17
0.1985 	0.756935 	1.52244e-14 	-1.18859e-16
0.1995 	0.756935 	1.64562e-14 	-1.0157e-16
0.2005 	0.756935 	4.2592e-15 	7.5968e-18
0.2015 	0.756935 	-1.35926e-14 	1.13812e-16
0.2025 	0.756935 	-1.67479e-14 	8.60156e-17
0.2035 	0.756935 	2.06632e-15 	-5.89271e-17
0.2045 	0.756935 	1.92625e-14 	-1.26351e-16
0.2055 	0.756935 	6.95344e-15 	1.07348e-17
0.2065 	0.756935 	-2.46467e-14 	2.00151e-16
0.2075 	0.756935 	-3.34853e-14 	1.78122e-16
0.2085 	0.756935 	-2.42044e-15 	-5.95996e-17
0.2095 	0.756935 	3.0885e-14 	-2.10615e-16
0.2105 	0.756935 	2.11458e-14 	-6.56133e-17
0.2115 	0.756935 	-1.97338e-14 	1.81914e-16
0.2125 	0.756935 	-3.4815e-14 	1.83672e-16
0.2135 	0.756935 	-7.63369e-16 	-7.71711e-17
0.2145 	0.756935 	3.76294e-14 	-2.52814e-16
0.2155 	0.756935 	2.85202e-14 	-1.07249e-16
0.2165 	0.756935 	-1.60414e-14 	1.65857e-16
0.2175 	0.756935 	-3.7558e-14 	2.11809e-16
0.2185 	0.756935 	-9.33165e-15 	-1.87661e-17
0.2195 	0.756935 	3.10139e-14 	-2.25045e-16
0.2205 	0.756935 	3.28384e-14 	-1.54919e-16
0.2215 	0.756935 	-3.94391e-15 	8.87388e-17
0.2225 	0.756935 	-3.24641e-14 	2.00486e-16
0.2235 	0.756935 	-1.8984e-14 	5.55479e-17
0.2245 	0.756935 	1.76664e-14 	-1.54557e-16
0.2255 	0.756935 	3.19489e-14 	-1.71121e-16
0.2265 	0.756935 	6.89675e-15 	2.2101e-17
0.2275 	0.756935 	-2.73719e-14 	1.93453e-16
0.2285 	0.756935 	-3.10207e-14 	1.48456e-16
0.2295 	0.756935 	-1.82456e-15 	-4.26532e-17
0.2305 	0.756935 	2.34556e-14 	-1.41169e-16
0.2315 	0.756935 	1.46764e-14 	-3.61317e-17
0.2325 	0.756935 	-1.4691e-14 	1.22479e-16
0.2335 	0.756935 	-2.47433e-14 	1.15367e-16
0.2345 	0.756935 	4.6443e-16 	-6.68099e-17
0.2355 	0.756935 	3.16038e-14 	-2.04455e-16
0.2365 	0.756935 	2.96455e-14 	-1.22283e-16
0.2375 	0.756935 	-4.36166e-15 	8.38223e-17
0.2385 	0.756935 	-2.91037e-14 	1.63951e-16
0.2395 	0.756935 	-1.55202e-14 	3.48112e-17
0.2405 	0.756935 	1.55659e-14 	-1.17788e-16
0.2415 	0.756935 	2.1852e-14 	-9.12439e-17
0.2425 	0.756935 	-4.4603e-15 	7.37196e-17
0.2435 	0.756935 	-2.8943e-14 	1.65828e-16
0.2445 	0.756935 	-2.17526e-14 	7.96898e-17
0.2455 	0.756935 	7.11154e-15 	-7.60412e-17
0.2465 	0.756935 	2.52703e-14 	-1.3518e-16
0.2475 	0.756935 	1.68717e-14 	-5.96714e-17
0.2485 	0.756935 	-4.50055e-15 	4.75722e-17
0.2495 	0.756935 	-1.47772e-14 	7.02478e-17
0.2505 	0.756935 	-4.7001e-15 	-2.86445e-18
0.2515 	0.756935 	1.21573e-14 	-7.66234e-17
0.2525 	0.756935 	1.48784e-14 	-5.86017e-17
0.2535 	0.756935 	-1.45535e-15 	3.86511e-17
0.2545 	0.756935 	-2.02522e-14 	1.14381e-16
0.2555 	0.756935 	-2.17995e-14 	8.94978e-17
0.2565 	0.756935 	-3.53869e-15 	-1.6255e-17
0.2575 	0.756935 	1.84547e-14 	-1.08176e-16
0.2585 	0.756935 	2.46153e-14 	-1.04594e-16
0.2595 	0.756935 	9.44435e-15 	-1.23935e-17
0.2605 	0.756935 	-1.24659e-14 	7.73444e-17
0.2615 	0.756935 	-2.00104e-14 	8.12836e-17
0.2625 	0.756935 	-7.8028e-15 	1.05005e-17
0.2635 	0.756935 	8.78374e-15 	-5.09652e-17
0.2645 	0.756935 	1.2597e-14 	-4.60063e-17
0.2655 	0.756935 	3.01834e-15 	3.25027e-18
0.2665 	0.756935 	-7.37907e-15 	3.7795e-17
0.2675 	0.756935 	-8.35386e-15 	2.72831e-17
0.2685 	0.756935 	-6.22742e-16 	-9.75066e-18
0.2695 	0.756935 	7.10174e-15 	-3.36181e-17
0.2705 	0.756935 	7.42093e-15 	-2.4183e-17
0.2715 	0.756935 	8.31641e-16 	8.13775e-18
0.2725 	0.756935 	-7.31096e-15 	3.82474e-17
0.2735 	0.756935 	-1.01092e-14 	2.97197e-17
0.2745 	0.756935 	1.44286e-16 	-2.24618e-17
0.2755 	0.756935 	1.16425e-14 	-2.18496e-17
0.2765 	0.756935 	-4.9544e-15 	5.15538e-17
0.2775 	0.756935 	-1.42446e-14 	-4.20147e-17
0.2785 	0.756935 	4.63649e-14 	-1.98661e-16
0.2795 	0.756934 	3.07951e-14 	2.06767e-16
0.2805 	0.756934 	-1.67526e-13 	5.51982e-16
0.2815 	0.756937 	-6.32275e-14 	-5.86119e-16
0.2825 	0.756936 	4.55904e-13 	-1.23314e-15
0.2835 	0.756929 	1.05874e-13 	1.3909e-15
0.2845 	0.756933 	-1.07908e-12 	2.53184e-15
0.2855 	0.756948 	-2.11842e-13 	-2.56514e-15
0.2865 	0.75694 	2.19032e-12 	-4.61621e-15
0.2875 	0.756909 	5.26488e-13 	3.8523e-15
0.2885 	0.756923 	-3.90297e-12 	7.61639e-15
0.2895 	0.756982 	-1.40462e-12 	-4.2486e-15
0.2905 	0.756964 	5.89418e-12 	-1.02774e-14
0.2915 	0.75687 	2.84106e-12 	3.60756e-15
0.2925 	0.756886 	-7.64899e-12 	1.16507e-14
0.2935 	0.757018 	-4.87325e-12 	-1.30403e-15
0.2945 	0.757017 	7.91398e-12 	-8.98329e-15
0.2955 	0.756869 	5.43203e-12 	-2.12797e-16
0.2965 	0.756861 	-6.26802e-12 	5.26344e-15
0.2975 	0.756995 	-5.57611e-12 	1.58325e-15
0.2985 	0.757028 	2.16411e-12 	-7.80875e-16
