# Force coefficients
# liftDir    : (0.000000e+00 1.000000e+00 0.000000e+00)
# dragDir    : (1.000000e+00 0.000000e+00 0.000000e+00)
# pitchAxis  : (0.000000e+00 0.000000e+00 1.000000e+00)
# magUInf    : 5.148000e+01
# lRef       : 4.530000e-01
# Aref       : 4.348800e-01
# CofR       : (0.000000e+00 0.000000e+00 0.000000e+00)
# Time       	Cm           	Cd           	Cl           	Cl(f)        	Cl(r)        	Cm	Cd	Cl	Cl(f)	Cl(r)
1.000000e-03	-1.775159e-03	1.969496e-03	-3.034279e-03	-3.292299e-03	2.580202e-04
2.000000e-03	-1.158079e-02	1.322570e-02	-2.105313e-02	-2.210736e-02	1.054227e-03
3.000000e-03	-1.993289e-02	2.274666e-02	-3.800623e-02	-3.893601e-02	9.297777e-04
4.000000e-03	-2.209235e-02	2.514439e-02	-4.404261e-02	-4.411366e-02	7.104353e-05
5.000000e-03	-2.250029e-02	2.530579e-02	-4.747015e-02	-4.623537e-02	-1.234781e-03
6.000000e-03	-2.335177e-02	2.567044e-02	-5.204680e-02	-4.937517e-02	-2.671632e-03
7.000000e-03	-2.500599e-02	2.675946e-02	-5.818960e-02	-5.410078e-02	-4.088811e-03
8.000000e-03	-2.872610e-02	3.009031e-02	-6.798202e-02	-6.271711e-02	-5.264915e-03
9.000000e-03	-3.392516e-02	3.507906e-02	-8.044145e-02	-7.414588e-02	-6.295565e-03
1.000000e-02	-3.950997e-02	4.057955e-02	-9.354710e-02	-8.628351e-02	-7.263581e-03
1.100000e-02	-4.452118e-02	4.548533e-02	-1.056286e-01	-9.733547e-02	-8.293111e-03
1.200000e-02	-4.936485e-02	5.025227e-02	-1.174603e-01	-1.080950e-01	-9.365307e-03
1.300000e-02	-5.375559e-02	5.456078e-02	-1.285243e-01	-1.180178e-01	-1.050658e-02
1.400000e-02	-5.810592e-02	5.882511e-02	-1.396506e-01	-1.279312e-01	-1.171937e-02
1.500000e-02	-6.329912e-02	6.403604e-02	-1.525009e-01	-1.395496e-01	-1.295135e-02
1.600000e-02	-6.988549e-02	7.076836e-02	-1.682292e-01	-1.540001e-01	-1.422912e-02
1.700000e-02	-7.785138e-02	7.890648e-02	-1.870935e-01	-1.713981e-01	-1.569540e-02
1.800000e-02	-8.688830e-02	8.806877e-02	-2.086882e-01	-1.912324e-01	-1.745580e-02
1.900000e-02	-9.613445e-02	9.730618e-02	-2.313791e-01	-2.118240e-01	-1.955509e-02
2.000000e-02	-1.051931e-01	1.061893e-01	-2.542654e-01	-2.323258e-01	-2.193963e-02
2.100000e-02	-1.136798e-01	1.143587e-01	-2.763741e-01	-2.518668e-01	-2.450729e-02
2.200000e-02	-1.216008e-01	1.218578e-01	-2.974975e-01	-2.703495e-01	-2.714790e-02
2.300000e-02	-1.294924e-01	1.292789e-01	-3.185496e-01	-2.887672e-01	-2.978235e-02
2.400000e-02	-1.379788e-01	1.372763e-01	-3.406897e-01	-3.083236e-01	-3.236608e-02
2.500000e-02	-1.476711e-01	1.465180e-01	-3.653259e-01	-3.303341e-01	-3.499187e-02
2.600000e-02	-1.585235e-01	1.569615e-01	-3.925088e-01	-3.547779e-01	-3.773092e-02
2.700000e-02	-1.705338e-01	1.686189e-01	-4.223461e-01	-3.817068e-01	-4.063928e-02
2.800000e-02	-1.834404e-01	1.811995e-01	-4.543862e-01	-4.106335e-01	-4.375265e-02
2.900000e-02	-1.968949e-01	1.943681e-01	-4.878768e-01	-4.408333e-01	-4.704356e-02
3.000000e-02	-2.105295e-01	2.076881e-01	-5.220839e-01	-4.715714e-01	-5.051247e-02
3.100000e-02	-2.241508e-01	2.209946e-01	-5.565425e-01	-5.024220e-01	-5.412050e-02
3.200000e-02	-2.378260e-01	2.343577e-01	-5.911255e-01	-5.333887e-01	-5.773679e-02
3.300000e-02	-2.516965e-01	2.479526e-01	-6.260189e-01	-5.647059e-01	-6.131299e-02
3.400000e-02	-2.661713e-01	2.621646e-01	-6.619578e-01	-5.971501e-01	-6.480762e-02
3.500000e-02	-2.814629e-01	2.772438e-01	-6.995420e-01	-6.312339e-01	-6.830808e-02
3.600000e-02	-2.974960e-01	2.931021e-01	-7.386500e-01	-6.668210e-01	-7.182904e-02
3.700000e-02	-3.140708e-01	3.095647e-01	-7.788114e-01	-7.034765e-01	-7.533489e-02
3.800000e-02	-3.311121e-01	3.265463e-01	-8.198231e-01	-7.410236e-01	-7.879947e-02
3.900000e-02	-3.488307e-01	3.442369e-01	-8.621826e-01	-7.799220e-01	-8.226064e-02
4.000000e-02	-3.672078e-01	3.626142e-01	-9.058204e-01	-8.201179e-01	-8.570241e-02
4.100000e-02	-3.861611e-01	3.815860e-01	-9.505921e-01	-8.614571e-01	-8.913498e-02
4.200000e-02	-4.053592e-01	4.008303e-01	-9.956479e-01	-9.031831e-01	-9.246477e-02
4.300000e-02	-4.246889e-01	4.202263e-01	-1.040643e+00	-9.450101e-01	-9.563237e-02
4.400000e-02	-4.442148e-01	4.398128e-01	-1.085592e+00	-9.870109e-01	-9.858138e-02
4.500000e-02	-4.638147e-01	4.594964e-01	-1.130209e+00	-1.028919e+00	-1.012899e-01
4.600000e-02	-4.834114e-01	4.792006e-01	-1.174156e+00	-1.070489e+00	-1.036666e-01
4.700000e-02	-5.029471e-01	4.989096e-01	-1.217204e+00	-1.111549e+00	-1.056550e-01
4.800000e-02	-5.224196e-01	5.186377e-01	-1.259312e+00	-1.152075e+00	-1.072362e-01
4.900000e-02	-5.416468e-01	5.382313e-01	-1.300086e+00	-1.191690e+00	-1.083964e-01
5.000000e-02	-5.607433e-01	5.577533e-01	-1.339878e+00	-1.230682e+00	-1.091957e-01
5.100000e-02	-5.794975e-01	5.769775e-01	-1.378476e+00	-1.268736e+00	-1.097405e-01
5.200000e-02	-5.977377e-01	5.956927e-01	-1.415660e+00	-1.305568e+00	-1.100924e-01
5.300000e-02	-6.152403e-01	6.136907e-01	-1.451030e+00	-1.340755e+00	-1.102747e-01
5.400000e-02	-6.317062e-01	6.307177e-01	-1.483709e+00	-1.373561e+00	-1.101484e-01
5.500000e-02	-6.466414e-01	6.462976e-01	-1.512571e+00	-1.402927e+00	-1.096443e-01
5.600000e-02	-6.603635e-01	6.607731e-01	-1.538025e+00	-1.429376e+00	-1.086490e-01
5.700000e-02	-6.726302e-01	6.739129e-01	-1.559568e+00	-1.452414e+00	-1.071539e-01
5.800000e-02	-6.838114e-01	6.860520e-01	-1.578111e+00	-1.472867e+00	-1.052442e-01
5.900000e-02	-6.942887e-01	6.975585e-01	-1.594559e+00	-1.491568e+00	-1.029910e-01
6.000000e-02	-7.045159e-01	7.088179e-01	-1.610138e+00	-1.509585e+00	-1.005533e-01
6.100000e-02	-7.143575e-01	7.196581e-01	-1.624819e+00	-1.526767e+00	-9.805189e-02
6.200000e-02	-7.241425e-01	7.303463e-01	-1.639512e+00	-1.543898e+00	-9.561332e-02
6.300000e-02	-7.338450e-01	7.408402e-01	-1.654287e+00	-1.560989e+00	-9.329864e-02
6.400000e-02	-7.435082e-01	7.511808e-01	-1.669262e+00	-1.578139e+00	-9.112294e-02
6.500000e-02	-7.531371e-01	7.613710e-01	-1.684540e+00	-1.595407e+00	-8.913318e-02
6.600000e-02	-7.626705e-01	7.713421e-01	-1.700187e+00	-1.612764e+00	-8.742314e-02
6.700000e-02	-7.718729e-01	7.808476e-01	-1.715902e+00	-1.629824e+00	-8.607791e-02
6.800000e-02	-7.806106e-01	7.897586e-01	-1.731588e+00	-1.646405e+00	-8.518363e-02
6.900000e-02	-7.890448e-01	7.982269e-01	-1.747591e+00	-1.662840e+00	-8.475053e-02
7.000000e-02	-7.974040e-01	8.064937e-01	-1.764344e+00	-1.679576e+00	-8.476796e-02
7.100000e-02	-8.057384e-01	8.146371e-01	-1.781750e+00	-1.696613e+00	-8.513648e-02
7.200000e-02	-8.141167e-01	8.227460e-01	-1.799787e+00	-1.714010e+00	-8.577684e-02
7.300000e-02	-8.225503e-01	8.308081e-01	-1.818498e+00	-1.731799e+00	-8.669855e-02
7.400000e-02	-8.310207e-01	8.387895e-01	-1.837888e+00	-1.749965e+00	-8.792315e-02
7.500000e-02	-8.396595e-01	8.468081e-01	-1.858376e+00	-1.768847e+00	-8.952838e-02
7.600000e-02	-8.486141e-01	8.549700e-01	-1.880343e+00	-1.788785e+00	-9.155720e-02
7.700000e-02	-8.577618e-01	8.631816e-01	-1.903411e+00	-1.809467e+00	-9.394365e-02
7.800000e-02	-8.670061e-01	8.713571e-01	-1.927271e+00	-1.830641e+00	-9.662915e-02
7.900000e-02	-8.766191e-01	8.798376e-01	-1.952156e+00	-1.852697e+00	-9.945896e-02
8.000000e-02	-8.870809e-01	8.891703e-01	-1.978675e+00	-1.876418e+00	-1.022564e-01
8.100000e-02	-8.986037e-01	8.995951e-01	-2.006987e+00	-1.902097e+00	-1.048898e-01
8.200000e-02	-9.104463e-01	9.104247e-01	-2.035864e+00	-1.928378e+00	-1.074857e-01
8.300000e-02	-9.217774e-01	9.207430e-01	-2.064040e+00	-1.953798e+00	-1.102428e-01
8.400000e-02	-9.325016e-01	9.304957e-01	-2.091428e+00	-1.978216e+00	-1.132125e-01
8.500000e-02	-9.431350e-01	9.401494e-01	-2.119161e+00	-2.002715e+00	-1.164454e-01
8.600000e-02	-9.527373e-01	9.488161e-01	-2.145679e+00	-2.025577e+00	-1.201023e-01
8.700000e-02	-9.603749e-01	9.554446e-01	-2.169448e+00	-2.045099e+00	-1.243491e-01
8.800000e-02	-9.661600e-01	9.601397e-01	-2.190767e+00	-2.061543e+00	-1.292234e-01
8.900000e-02	-9.700410e-01	9.628053e-01	-2.209328e+00	-2.074705e+00	-1.346230e-01
9.000000e-02	-9.719875e-01	9.634703e-01	-2.224779e+00	-2.084377e+00	-1.404021e-01
9.100000e-02	-9.722351e-01	9.623228e-01	-2.237403e+00	-2.090937e+00	-1.464663e-01
9.200000e-02	-9.713178e-01	9.600024e-01	-2.247766e+00	-2.095201e+00	-1.525651e-01
9.300000e-02	-9.706626e-01	9.579774e-01	-2.257979e+00	-2.099652e+00	-1.583269e-01
9.400000e-02	-9.715252e-01	9.576409e-01	-2.269815e+00	-2.106433e+00	-1.633823e-01
9.500000e-02	-9.745688e-01	9.595357e-01	-2.284800e+00	-2.116969e+00	-1.678312e-01
9.600000e-02	-9.792406e-01	9.631254e-01	-2.301936e+00	-2.130209e+00	-1.717274e-01
9.700000e-02	-9.852511e-01	9.679153e-01	-2.321424e+00	-2.145963e+00	-1.754609e-01
9.800000e-02	-9.921575e-01	9.734221e-01	-2.342630e+00	-2.163473e+00	-1.791575e-01
9.900000e-02	-9.994663e-01	9.791726e-01	-2.364510e+00	-2.181721e+00	-1.827888e-01
1.000000e-01	-1.007223e+00	9.852815e-01	-2.387057e+00	-2.200752e+00	-1.863052e-01
1.010000e-01	-1.015511e+00	9.920913e-01	-2.409818e+00	-2.220421e+00	-1.893976e-01
1.020000e-01	-1.024570e+00	1.000027e+00	-2.433006e+00	-2.241073e+00	-1.919328e-01
1.030000e-01	-1.035073e+00	1.009847e+00	-2.457827e+00	-2.263987e+00	-1.938400e-01
1.040000e-01	-1.046780e+00	1.021232e+00	-2.484097e+00	-2.288828e+00	-1.952687e-01
1.050000e-01	-1.059101e+00	1.033434e+00	-2.511270e+00	-2.314735e+00	-1.965344e-01
1.060000e-01	-1.071266e+00	1.045530e+00	-2.538326e+00	-2.340429e+00	-1.978967e-01
1.070000e-01	-1.082776e+00	1.056904e+00	-2.564726e+00	-2.365139e+00	-1.995876e-01
1.080000e-01	-1.093286e+00	1.067210e+00	-2.589825e+00	-2.388198e+00	-2.016266e-01
1.090000e-01	-1.102848e+00	1.076479e+00	-2.613694e+00	-2.409695e+00	-2.039987e-01
1.100000e-01	-1.111378e+00	1.084655e+00	-2.635968e+00	-2.429362e+00	-2.066054e-01
1.110000e-01	-1.118889e+00	1.091743e+00	-2.656622e+00	-2.447200e+00	-2.094223e-01
1.120000e-01	-1.125094e+00	1.097439e+00	-2.675038e+00	-2.462613e+00	-2.124255e-01
1.130000e-01	-1.130024e+00	1.101739e+00	-2.691382e+00	-2.475715e+00	-2.156673e-01
1.140000e-01	-1.133879e+00	1.104889e+00	-2.705866e+00	-2.486812e+00	-2.190538e-01
1.150000e-01	-1.137127e+00	1.107372e+00	-2.719292e+00	-2.496772e+00	-2.225191e-01
1.160000e-01	-1.140171e+00	1.109633e+00	-2.732189e+00	-2.506266e+00	-2.259230e-01
1.170000e-01	-1.143309e+00	1.111963e+00	-2.745053e+00	-2.515836e+00	-2.292171e-01
1.180000e-01	-1.146890e+00	1.114745e+00	-2.758332e+00	-2.526056e+00	-2.322762e-01
1.190000e-01	-1.150920e+00	1.117959e+00	-2.772142e+00	-2.536991e+00	-2.351510e-01
1.200000e-01	-1.155629e+00	1.121897e+00	-2.786675e+00	-2.548967e+00	-2.377082e-01
1.210000e-01	-1.160783e+00	1.126271e+00	-2.801743e+00	-2.561654e+00	-2.400885e-01
1.220000e-01	-1.166400e+00	1.131139e+00	-2.817173e+00	-2.574986e+00	-2.421867e-01
1.230000e-01	-1.172466e+00	1.136439e+00	-2.833090e+00	-2.589011e+00	-2.440791e-01
1.240000e-01	-1.179136e+00	1.142341e+00	-2.849675e+00	-2.603974e+00	-2.457014e-01
1.250000e-01	-1.186447e+00	1.148892e+00	-2.867128e+00	-2.620011e+00	-2.471166e-01
1.260000e-01	-1.194506e+00	1.156233e+00	-2.885488e+00	-2.637250e+00	-2.482374e-01
1.270000e-01	-1.203209e+00	1.164254e+00	-2.904746e+00	-2.655582e+00	-2.491635e-01
1.280000e-01	-1.212575e+00	1.173025e+00	-2.924794e+00	-2.674972e+00	-2.498225e-01
1.290000e-01	-1.222472e+00	1.182377e+00	-2.945610e+00	-2.695277e+00	-2.503327e-01
1.300000e-01	-1.233076e+00	1.192502e+00	-2.967397e+00	-2.716774e+00	-2.506224e-01
1.310000e-01	-1.244513e+00	1.203493e+00	-2.990567e+00	-2.739796e+00	-2.507709e-01
1.320000e-01	-1.256714e+00	1.215266e+00	-3.015066e+00	-2.764247e+00	-2.508189e-01
1.330000e-01	-1.269183e+00	1.227264e+00	-3.040247e+00	-2.789307e+00	-2.509406e-01
1.340000e-01	-1.281377e+00	1.238949e+00	-3.065192e+00	-2.813973e+00	-2.512187e-01
1.350000e-01	-1.293241e+00	1.250279e+00	-3.089843e+00	-2.838163e+00	-2.516799e-01
1.360000e-01	-1.304151e+00	1.260724e+00	-3.112888e+00	-2.860595e+00	-2.522927e-01
1.370000e-01	-1.313503e+00	1.269657e+00	-3.133407e+00	-2.880206e+00	-2.532009e-01
1.380000e-01	-1.320849e+00	1.276721e+00	-3.150363e+00	-2.896030e+00	-2.543321e-01
1.390000e-01	-1.325704e+00	1.281424e+00	-3.162915e+00	-2.907161e+00	-2.557540e-01
1.400000e-01	-1.328400e+00	1.284143e+00	-3.171362e+00	-2.914081e+00	-2.572810e-01
1.410000e-01	-1.329798e+00	1.285708e+00	-3.177182e+00	-2.918389e+00	-2.587929e-01
1.420000e-01	-1.331324e+00	1.287539e+00	-3.182691e+00	-2.922670e+00	-2.600215e-01
1.430000e-01	-1.333767e+00	1.290334e+00	-3.189438e+00	-2.928486e+00	-2.609517e-01
1.440000e-01	-1.337447e+00	1.294343e+00	-3.198108e+00	-2.936501e+00	-2.616072e-01
1.450000e-01	-1.341944e+00	1.299034e+00	-3.208382e+00	-2.946135e+00	-2.622471e-01
1.460000e-01	-1.346511e+00	1.303618e+00	-3.219116e+00	-2.956069e+00	-2.630465e-01
1.470000e-01	-1.350193e+00	1.307059e+00	-3.229007e+00	-2.964697e+00	-2.643107e-01
1.480000e-01	-1.352180e+00	1.308608e+00	-3.236471e+00	-2.970415e+00	-2.660554e-01
1.490000e-01	-1.352258e+00	1.308086e+00	-3.241002e+00	-2.972759e+00	-2.682426e-01
1.500000e-01	-1.351280e+00	1.306490e+00	-3.243454e+00	-2.973007e+00	-2.704472e-01
1.510000e-01	-1.350139e+00	1.304728e+00	-3.245162e+00	-2.972720e+00	-2.724417e-01
1.520000e-01	-1.350233e+00	1.304280e+00	-3.248140e+00	-2.974302e+00	-2.738372e-01
1.530000e-01	-1.352430e+00	1.306000e+00	-3.253975e+00	-2.979418e+00	-2.745572e-01
1.540000e-01	-1.356970e+00	1.310146e+00	-3.263088e+00	-2.988514e+00	-2.745739e-01
1.550000e-01	-1.363522e+00	1.316293e+00	-3.275320e+00	-3.001182e+00	-2.741381e-01
1.560000e-01	-1.371454e+00	1.323807e+00	-3.289739e+00	-3.016324e+00	-2.734152e-01
1.570000e-01	-1.380039e+00	1.331898e+00	-3.305457e+00	-3.032767e+00	-2.726891e-01
1.580000e-01	-1.388904e+00	1.340270e+00	-3.321725e+00	-3.049766e+00	-2.719587e-01
1.590000e-01	-1.397829e+00	1.348672e+00	-3.338336e+00	-3.066997e+00	-2.713390e-01
1.600000e-01	-1.406951e+00	1.357318e+00	-3.355340e+00	-3.084621e+00	-2.707188e-01
1.610000e-01	-1.416308e+00	1.366213e+00	-3.372916e+00	-3.102766e+00	-2.701497e-01
1.620000e-01	-1.425986e+00	1.375504e+00	-3.391031e+00	-3.121502e+00	-2.695293e-01
1.630000e-01	-1.435811e+00	1.384957e+00	-3.409569e+00	-3.140596e+00	-2.689732e-01
1.640000e-01	-1.445512e+00	1.394313e+00	-3.428017e+00	-3.159520e+00	-2.684970e-01
1.650000e-01	-1.454796e+00	1.403221e+00	-3.446023e+00	-3.177808e+00	-2.682148e-01
1.660000e-01	-1.463629e+00	1.411701e+00	-3.463346e+00	-3.195302e+00	-2.680441e-01
1.670000e-01	-1.472061e+00	1.419779e+00	-3.480153e+00	-3.212138e+00	-2.680149e-01
1.680000e-01	-1.480274e+00	1.427694e+00	-3.496575e+00	-3.228562e+00	-2.680130e-01
1.690000e-01	-1.488425e+00	1.435561e+00	-3.512990e+00	-3.244920e+00	-2.680697e-01
1.700000e-01	-1.496492e+00	1.443364e+00	-3.529309e+00	-3.261147e+00	-2.681621e-01
1.710000e-01	-1.504312e+00	1.450863e+00	-3.545447e+00	-3.277036e+00	-2.684112e-01
1.720000e-01	-1.511828e+00	1.458038e+00	-3.561185e+00	-3.292421e+00	-2.687641e-01
1.730000e-01	-1.518915e+00	1.464704e+00	-3.576445e+00	-3.307137e+00	-2.693077e-01
1.740000e-01	-1.525761e+00	1.471130e+00	-3.591330e+00	-3.321425e+00	-2.699041e-01
1.750000e-01	-1.532304e+00	1.477228e+00	-3.605816e+00	-3.335213e+00	-2.706038e-01
1.760000e-01	-1.538556e+00	1.483073e+00	-3.619729e+00	-3.348421e+00	-2.713081e-01
1.770000e-01	-1.544230e+00	1.488305e+00	-3.632772e+00	-3.360616e+00	-2.721557e-01
1.780000e-01	-1.549157e+00	1.492785e+00	-3.644555e+00	-3.371435e+00	-2.731202e-01
1.790000e-01	-1.553134e+00	1.496226e+00	-3.654909e+00	-3.380588e+00	-2.743208e-01
1.800000e-01	-1.556245e+00	1.498768e+00	-3.663784e+00	-3.388137e+00	-2.756464e-01
1.810000e-01	-1.558566e+00	1.500442e+00	-3.671374e+00	-3.394253e+00	-2.771206e-01
1.820000e-01	-1.560440e+00	1.501676e+00	-3.678018e+00	-3.399450e+00	-2.785689e-01
1.830000e-01	-1.562091e+00	1.502662e+00	-3.684167e+00	-3.404175e+00	-2.799921e-01
1.840000e-01	-1.563911e+00	1.503862e+00	-3.690297e+00	-3.409059e+00	-2.812381e-01
1.850000e-01	-1.565974e+00	1.505289e+00	-3.696705e+00	-3.414327e+00	-2.823778e-01
1.860000e-01	-1.568459e+00	1.507165e+00	-3.703586e+00	-3.420252e+00	-2.833342e-01
1.870000e-01	-1.571212e+00	1.509264e+00	-3.710887e+00	-3.426655e+00	-2.842320e-01
1.880000e-01	-1.574306e+00	1.511725e+00	-3.718631e+00	-3.433622e+00	-2.850097e-01
1.890000e-01	-1.577567e+00	1.514321e+00	-3.726667e+00	-3.440901e+00	-2.857666e-01
1.900000e-01	-1.581122e+00	1.517263e+00	-3.735066e+00	-3.448655e+00	-2.864110e-01
1.910000e-01	-1.584846e+00	1.520384e+00	-3.743721e+00	-3.456707e+00	-2.870143e-01
1.920000e-01	-1.588875e+00	1.523886e+00	-3.752736e+00	-3.465243e+00	-2.874929e-01
1.930000e-01	-1.593020e+00	1.527516e+00	-3.761935e+00	-3.473987e+00	-2.879477e-01
1.940000e-01	-1.597329e+00	1.531370e+00	-3.771318e+00	-3.482988e+00	-2.883294e-01
1.950000e-01	-1.601573e+00	1.535147e+00	-3.780647e+00	-3.491896e+00	-2.887509e-01
1.960000e-01	-1.605800e+00	1.538951e+00	-3.789931e+00	-3.500766e+00	-2.891651e-01
1.970000e-01	-1.609830e+00	1.542540e+00	-3.798973e+00	-3.509316e+00	-2.896565e-01
1.980000e-01	-1.613741e+00	1.546050e+00	-3.807782e+00	-3.517632e+00	-2.901504e-01
1.990000e-01	-1.617335e+00	1.549225e+00	-3.816151e+00	-3.525411e+00	-2.907402e-01
2.000000e-01	-1.620720e+00	1.552233e+00	-3.824142e+00	-3.532791e+00	-2.913510e-01
2.010000e-01	-1.623742e+00	1.554858e+00	-3.831592e+00	-3.539538e+00	-2.920538e-01
2.020000e-01	-1.626539e+00	1.557298e+00	-3.838610e+00	-3.545844e+00	-2.927663e-01
2.030000e-01	-1.628979e+00	1.559358e+00	-3.845083e+00	-3.551521e+00	-2.935622e-01
2.040000e-01	-1.631244e+00	1.561280e+00	-3.851192e+00	-3.556840e+00	-2.943524e-01
2.050000e-01	-1.633199e+00	1.562863e+00	-3.856797e+00	-3.561597e+00	-2.951995e-01
2.060000e-01	-1.635059e+00	1.564377e+00	-3.862155e+00	-3.566137e+00	-2.960186e-01
2.070000e-01	-1.636676e+00	1.565605e+00	-3.867123e+00	-3.570237e+00	-2.968858e-01
2.080000e-01	-1.638216e+00	1.566773e+00	-3.871863e+00	-3.574148e+00	-2.977155e-01
2.090000e-01	-1.639574e+00	1.567711e+00	-3.876313e+00	-3.577731e+00	-2.985827e-01
2.100000e-01	-1.640951e+00	1.568686e+00	-3.880688e+00	-3.581296e+00	-2.993927e-01
2.110000e-01	-1.642258e+00	1.569553e+00	-3.884930e+00	-3.584723e+00	-3.002067e-01
2.120000e-01	-1.643699e+00	1.570581e+00	-3.889258e+00	-3.588328e+00	-3.009298e-01
2.130000e-01	-1.645186e+00	1.571627e+00	-3.893631e+00	-3.592002e+00	-3.016297e-01
2.140000e-01	-1.646895e+00	1.572931e+00	-3.898229e+00	-3.596009e+00	-3.022199e-01
2.150000e-01	-1.648704e+00	1.574312e+00	-3.902959e+00	-3.600183e+00	-3.027761e-01
2.160000e-01	-1.650734e+00	1.575952e+00	-3.907935e+00	-3.604701e+00	-3.032334e-01
2.170000e-01	-1.652849e+00	1.577656e+00	-3.913053e+00	-3.609376e+00	-3.036772e-01
2.180000e-01	-1.655134e+00	1.579563e+00	-3.918349e+00	-3.614308e+00	-3.040404e-01
2.190000e-01	-1.657444e+00	1.581475e+00	-3.923696e+00	-3.619292e+00	-3.044040e-01
2.200000e-01	-1.659886e+00	1.583558e+00	-3.929156e+00	-3.624464e+00	-3.046919e-01
2.210000e-01	-1.662308e+00	1.585604e+00	-3.934584e+00	-3.629600e+00	-3.049834e-01
2.220000e-01	-1.664834e+00	1.587799e+00	-3.940069e+00	-3.634868e+00	-3.052000e-01
2.230000e-01	-1.667307e+00	1.589933e+00	-3.945482e+00	-3.640048e+00	-3.054342e-01
2.240000e-01	-1.669818e+00	1.592158e+00	-3.950852e+00	-3.645244e+00	-3.056073e-01
2.250000e-01	-1.672227e+00	1.594271e+00	-3.956072e+00	-3.650263e+00	-3.058091e-01
2.260000e-01	-1.674652e+00	1.596448e+00	-3.961201e+00	-3.655252e+00	-3.059490e-01
2.270000e-01	-1.676932e+00	1.598463e+00	-3.966120e+00	-3.659992e+00	-3.061282e-01
2.280000e-01	-1.679183e+00	1.600497e+00	-3.970874e+00	-3.664621e+00	-3.062538e-01
2.290000e-01	-1.681272e+00	1.602355e+00	-3.975391e+00	-3.668968e+00	-3.064229e-01
2.300000e-01	-1.683288e+00	1.604177e+00	-3.979685e+00	-3.673130e+00	-3.065549e-01
2.310000e-01	-1.685123e+00	1.605799e+00	-3.983725e+00	-3.676986e+00	-3.067395e-01
2.320000e-01	-1.686905e+00	1.607407e+00	-3.987569e+00	-3.680690e+00	-3.068795e-01
2.330000e-01	-1.688501e+00	1.608806e+00	-3.991139e+00	-3.684070e+00	-3.070688e-01
2.340000e-01	-1.690091e+00	1.610244e+00	-3.994555e+00	-3.687369e+00	-3.071868e-01
2.350000e-01	-1.691561e+00	1.611538e+00	-3.997800e+00	-3.690461e+00	-3.073388e-01
2.360000e-01	-1.693066e+00	1.612909e+00	-4.000953e+00	-3.693542e+00	-3.074109e-01
2.370000e-01	-1.694462e+00	1.614144e+00	-4.003960e+00	-3.696442e+00	-3.075175e-01
2.380000e-01	-1.695904e+00	1.615462e+00	-4.006908e+00	-3.699358e+00	-3.075500e-01
2.390000e-01	-1.697276e+00	1.616682e+00	-4.009786e+00	-3.702169e+00	-3.076167e-01
2.400000e-01	-1.698693e+00	1.617986e+00	-4.012592e+00	-3.704989e+00	-3.076033e-01
2.410000e-01	-1.700053e+00	1.619207e+00	-4.015339e+00	-3.707723e+00	-3.076162e-01
2.420000e-01	-1.701529e+00	1.620589e+00	-4.018114e+00	-3.710586e+00	-3.075280e-01
2.430000e-01	-1.702999e+00	1.621941e+00	-4.020909e+00	-3.713454e+00	-3.074554e-01
2.440000e-01	-1.704548e+00	1.623414e+00	-4.023675e+00	-3.716385e+00	-3.072894e-01
2.450000e-01	-1.706063e+00	1.624828e+00	-4.026424e+00	-3.719275e+00	-3.071488e-01
2.460000e-01	-1.707694e+00	1.626401e+00	-4.029229e+00	-3.722308e+00	-3.069209e-01
2.470000e-01	-1.709249e+00	1.627867e+00	-4.031974e+00	-3.725236e+00	-3.067374e-01
2.480000e-01	-1.710870e+00	1.629447e+00	-4.034673e+00	-3.728207e+00	-3.064666e-01
2.490000e-01	-1.712417e+00	1.630928e+00	-4.037304e+00	-3.731069e+00	-3.062350e-01
2.500000e-01	-1.714036e+00	1.632527e+00	-4.039914e+00	-3.733993e+00	-3.059213e-01
2.510000e-01	-1.715591e+00	1.634035e+00	-4.042462e+00	-3.736822e+00	-3.056400e-01
2.520000e-01	-1.717202e+00	1.635648e+00	-4.044960e+00	-3.739682e+00	-3.052779e-01
2.530000e-01	-1.718710e+00	1.637134e+00	-4.047342e+00	-3.742381e+00	-3.049611e-01
2.540000e-01	-1.720276e+00	1.638726e+00	-4.049687e+00	-3.745120e+00	-3.045678e-01
2.550000e-01	-1.721746e+00	1.640195e+00	-4.051930e+00	-3.747711e+00	-3.042193e-01
2.560000e-01	-1.723238e+00	1.641728e+00	-4.054080e+00	-3.750278e+00	-3.038015e-01
2.570000e-01	-1.724631e+00	1.643129e+00	-4.056127e+00	-3.752694e+00	-3.034327e-01
2.580000e-01	-1.726069e+00	1.644624e+00	-4.058116e+00	-3.755127e+00	-3.029883e-01
2.590000e-01	-1.727376e+00	1.645955e+00	-4.059951e+00	-3.757352e+00	-3.025995e-01
2.600000e-01	-1.728731e+00	1.647378e+00	-4.061718e+00	-3.759590e+00	-3.021283e-01
2.610000e-01	-1.729992e+00	1.648680e+00	-4.063391e+00	-3.761687e+00	-3.017037e-01
2.620000e-01	-1.731312e+00	1.650084e+00	-4.065015e+00	-3.763819e+00	-3.011957e-01
2.630000e-01	-1.732539e+00	1.651368e+00	-4.066548e+00	-3.765813e+00	-3.007352e-01
2.640000e-01	-1.733844e+00	1.652773e+00	-4.068081e+00	-3.767885e+00	-3.001960e-01
2.650000e-01	-1.735043e+00	1.654038e+00	-4.069517e+00	-3.769802e+00	-2.997150e-01
2.660000e-01	-1.736296e+00	1.655397e+00	-4.070887e+00	-3.771740e+00	-2.991471e-01
2.670000e-01	-1.737461e+00	1.656642e+00	-4.072176e+00	-3.773549e+00	-2.986267e-01
2.680000e-01	-1.738702e+00	1.658003e+00	-4.073447e+00	-3.775426e+00	-2.980212e-01
2.690000e-01	-1.739864e+00	1.659254e+00	-4.074662e+00	-3.777195e+00	-2.974672e-01
2.700000e-01	-1.741107e+00	1.660631e+00	-4.075856e+00	-3.779035e+00	-2.968206e-01
2.710000e-01	-1.742268e+00	1.661895e+00	-4.076994e+00	-3.780765e+00	-2.962295e-01
2.720000e-01	-1.743510e+00	1.663286e+00	-4.078125e+00	-3.782573e+00	-2.955524e-01
2.730000e-01	-1.744674e+00	1.664570e+00	-4.079205e+00	-3.784277e+00	-2.949281e-01
2.740000e-01	-1.745919e+00	1.665975e+00	-4.080276e+00	-3.786057e+00	-2.942195e-01
2.750000e-01	-1.747082e+00	1.667269e+00	-4.081299e+00	-3.787732e+00	-2.935676e-01
2.760000e-01	-1.748294e+00	1.668659e+00	-4.082258e+00	-3.789423e+00	-2.928348e-01
2.770000e-01	-1.749426e+00	1.669937e+00	-4.083170e+00	-3.791011e+00	-2.921595e-01
2.780000e-01	-1.750618e+00	1.671318e+00	-4.084042e+00	-3.792639e+00	-2.914029e-01
2.790000e-01	-1.751720e+00	1.672577e+00	-4.084835e+00	-3.794137e+00	-2.906973e-01
2.800000e-01	-1.752891e+00	1.673947e+00	-4.085598e+00	-3.795690e+00	-2.899084e-01
2.810000e-01	-1.753972e+00	1.675200e+00	-4.086277e+00	-3.797111e+00	-2.891664e-01
2.820000e-01	-1.755109e+00	1.676552e+00	-4.086910e+00	-3.798564e+00	-2.883459e-01
2.830000e-01	-1.756165e+00	1.677791e+00	-4.087484e+00	-3.799907e+00	-2.875769e-01
2.840000e-01	-1.757282e+00	1.679134e+00	-4.087991e+00	-3.801277e+00	-2.867140e-01
2.850000e-01	-1.758328e+00	1.680380e+00	-4.088442e+00	-3.802549e+00	-2.858932e-01
2.860000e-01	-1.759449e+00	1.681745e+00	-4.088856e+00	-3.803877e+00	-2.849787e-01
2.870000e-01	-1.760497e+00	1.683008e+00	-4.089211e+00	-3.805102e+00	-2.841089e-01
2.880000e-01	-1.761597e+00	1.684367e+00	-4.089509e+00	-3.806352e+00	-2.831574e-01
2.890000e-01	-1.762629e+00	1.685629e+00	-4.089763e+00	-3.807510e+00	-2.822524e-01
2.900000e-01	-1.763731e+00	1.687005e+00	-4.089981e+00	-3.808722e+00	-2.812593e-01
2.910000e-01	-1.764774e+00	1.688298e+00	-4.090164e+00	-3.809856e+00	-2.803080e-01
2.920000e-01	-1.765887e+00	1.689705e+00	-4.090290e+00	-3.811032e+00	-2.792575e-01
2.930000e-01	-1.766951e+00	1.691040e+00	-4.090401e+00	-3.812152e+00	-2.782490e-01
2.940000e-01	-1.768091e+00	1.692496e+00	-4.090479e+00	-3.813330e+00	-2.771480e-01
2.950000e-01	-1.769161e+00	1.693855e+00	-4.090524e+00	-3.814423e+00	-2.761011e-01
2.960000e-01	-1.770293e+00	1.695320e+00	-4.090529e+00	-3.815557e+00	-2.749716e-01
2.970000e-01	-1.771318e+00	1.696655e+00	-4.090437e+00	-3.816537e+00	-2.739004e-01
2.980000e-01	-1.772414e+00	1.698108e+00	-4.090330e+00	-3.817579e+00	-2.727506e-01
2.990000e-01	-1.773411e+00	1.699441e+00	-4.090126e+00	-3.818474e+00	-2.716514e-01
3.000000e-01	-1.774471e+00	1.700880e+00	-4.089896e+00	-3.819419e+00	-2.704767e-01
3.010000e-01	-1.775446e+00	1.702215e+00	-4.089580e+00	-3.820236e+00	-2.693438e-01
3.020000e-01	-1.776484e+00	1.703658e+00	-4.089207e+00	-3.821087e+00	-2.681201e-01
3.030000e-01	-1.777421e+00	1.704983e+00	-4.088739e+00	-3.821791e+00	-2.669485e-01
3.040000e-01	-1.778399e+00	1.706391e+00	-4.088194e+00	-3.822496e+00	-2.656985e-01
3.050000e-01	-1.779273e+00	1.707668e+00	-4.087551e+00	-3.823048e+00	-2.645030e-01
3.060000e-01	-1.780193e+00	1.709044e+00	-4.086821e+00	-3.823603e+00	-2.632178e-01
3.070000e-01	-1.780986e+00	1.710270e+00	-4.085954e+00	-3.823963e+00	-2.619914e-01
3.080000e-01	-1.781806e+00	1.711573e+00	-4.084978e+00	-3.824295e+00	-2.606826e-01
3.090000e-01	-1.782519e+00	1.712748e+00	-4.083898e+00	-3.824468e+00	-2.594296e-01
3.100000e-01	-1.783279e+00	1.714015e+00	-4.082744e+00	-3.824651e+00	-2.580928e-01
3.110000e-01	-1.783932e+00	1.715150e+00	-4.081489e+00	-3.824677e+00	-2.568124e-01
3.120000e-01	-1.784614e+00	1.716366e+00	-4.080116e+00	-3.824672e+00	-2.554445e-01
3.130000e-01	-1.785183e+00	1.717449e+00	-4.078628e+00	-3.824497e+00	-2.541311e-01
3.140000e-01	-1.785791e+00	1.718617e+00	-4.077063e+00	-3.824322e+00	-2.527407e-01
3.150000e-01	-1.786270e+00	1.719634e+00	-4.075380e+00	-3.823960e+00	-2.514197e-01
3.160000e-01	-1.786759e+00	1.720704e+00	-4.073577e+00	-3.823548e+00	-2.500298e-01
3.170000e-01	-1.787108e+00	1.721607e+00	-4.071634e+00	-3.822925e+00	-2.487087e-01
3.180000e-01	-1.787476e+00	1.722585e+00	-4.069527e+00	-3.822239e+00	-2.472877e-01
3.190000e-01	-1.787742e+00	1.723439e+00	-4.067310e+00	-3.821398e+00	-2.459128e-01
3.200000e-01	-1.788055e+00	1.724393e+00	-4.064979e+00	-3.820544e+00	-2.444346e-01
3.210000e-01	-1.788313e+00	1.725275e+00	-4.062648e+00	-3.819638e+00	-2.430108e-01
3.220000e-01	-1.788621e+00	1.726258e+00	-4.060265e+00	-3.818753e+00	-2.415115e-01
3.230000e-01	-1.788834e+00	1.727125e+00	-4.057847e+00	-3.817757e+00	-2.400898e-01
3.240000e-01	-1.789071e+00	1.728067e+00	-4.055371e+00	-3.816757e+00	-2.386139e-01
3.250000e-01	-1.789169e+00	1.728838e+00	-4.052792e+00	-3.815565e+00	-2.372266e-01
3.260000e-01	-1.789309e+00	1.729690e+00	-4.050160e+00	-3.814389e+00	-2.357712e-01
3.270000e-01	-1.789339e+00	1.730398e+00	-4.047451e+00	-3.813065e+00	-2.343860e-01
3.280000e-01	-1.789399e+00	1.731166e+00	-4.044685e+00	-3.811741e+00	-2.329433e-01
3.290000e-01	-1.789346e+00	1.731792e+00	-4.041807e+00	-3.810250e+00	-2.315577e-01
3.300000e-01	-1.789351e+00	1.732521e+00	-4.038875e+00	-3.808788e+00	-2.300871e-01
3.310000e-01	-1.789250e+00	1.733111e+00	-4.035860e+00	-3.807180e+00	-2.286802e-01
3.320000e-01	-1.789182e+00	1.733764e+00	-4.032772e+00	-3.805568e+00	-2.272039e-01
3.330000e-01	-1.789024e+00	1.734289e+00	-4.029606e+00	-3.803827e+00	-2.257784e-01
3.340000e-01	-1.788958e+00	1.734932e+00	-4.026470e+00	-3.802193e+00	-2.242767e-01
3.350000e-01	-1.788856e+00	1.735492e+00	-4.023388e+00	-3.800550e+00	-2.228376e-01
3.360000e-01	-1.788898e+00	1.736222e+00	-4.020405e+00	-3.799100e+00	-2.213048e-01
3.370000e-01	-1.788944e+00	1.736913e+00	-4.017520e+00	-3.797704e+00	-2.198160e-01
3.380000e-01	-1.789133e+00	1.737771e+00	-4.014764e+00	-3.796515e+00	-2.182497e-01
3.390000e-01	-1.789335e+00	1.738597e+00	-4.012150e+00	-3.795410e+00	-2.167401e-01
3.400000e-01	-1.789675e+00	1.739574e+00	-4.009645e+00	-3.794497e+00	-2.151478e-01
3.410000e-01	-1.790054e+00	1.740541e+00	-4.007287e+00	-3.793697e+00	-2.135897e-01
3.420000e-01	-1.790547e+00	1.741635e+00	-4.005000e+00	-3.793047e+00	-2.119533e-01
3.430000e-01	-1.791057e+00	1.742692e+00	-4.002860e+00	-3.792487e+00	-2.103726e-01
3.440000e-01	-1.791724e+00	1.743922e+00	-4.000829e+00	-3.792138e+00	-2.086904e-01
3.450000e-01	-1.792474e+00	1.745194e+00	-3.999019e+00	-3.791984e+00	-2.070352e-01
3.460000e-01	-1.793410e+00	1.746682e+00	-3.997355e+00	-3.792088e+00	-2.052671e-01
3.470000e-01	-1.794376e+00	1.748161e+00	-3.995798e+00	-3.792276e+00	-2.035228e-01
3.480000e-01	-1.795510e+00	1.749835e+00	-3.994363e+00	-3.792692e+00	-2.016717e-01
3.490000e-01	-1.796706e+00	1.751537e+00	-3.993100e+00	-3.793256e+00	-1.998436e-01
3.500000e-01	-1.798069e+00	1.753447e+00	-3.991918e+00	-3.794028e+00	-1.978903e-01
3.510000e-01	-1.799470e+00	1.755375e+00	-3.990871e+00	-3.794905e+00	-1.959656e-01
3.520000e-01	-1.800990e+00	1.757462e+00	-3.989863e+00	-3.795921e+00	-1.939420e-01
3.530000e-01	-1.802493e+00	1.759515e+00	-3.988912e+00	-3.796949e+00	-1.919627e-01
3.540000e-01	-1.804051e+00	1.761667e+00	-3.987961e+00	-3.798032e+00	-1.899293e-01
3.550000e-01	-1.805475e+00	1.763669e+00	-3.986942e+00	-3.798947e+00	-1.879957e-01
3.560000e-01	-1.806887e+00	1.765713e+00	-3.985775e+00	-3.799775e+00	-1.860003e-01
3.570000e-01	-1.808074e+00	1.767522e+00	-3.984325e+00	-3.800237e+00	-1.840884e-01
3.580000e-01	-1.809179e+00	1.769306e+00	-3.982551e+00	-3.800454e+00	-1.820968e-01
3.590000e-01	-1.809966e+00	1.770772e+00	-3.980284e+00	-3.800108e+00	-1.801755e-01
3.600000e-01	-1.810625e+00	1.772176e+00	-3.977611e+00	-3.799430e+00	-1.781807e-01