# Forces     
# CofR       : (0.000000e+00 0.000000e+00 0.000000e+00)
# Time       forces(pressure viscous porous) moment(pressure viscous porous)
1.000000e-03	((1.360297e+00 -2.105233e+00 -1.204113e-04) (6.095866e-03 -3.298543e-05 5.524703e-07) (0.000000e+00 0.000000e+00 0.000000e+00)) ((6.682242e-05 1.555424e-05 -5.585722e-01) (-1.780187e-07 -1.204346e-06 1.340224e-04) (0.000000e+00 0.000000e+00 0.000000e+00))
2.000000e-03	((9.068889e+00 -1.443192e+01 -6.498798e-04) (7.604058e-03 1.304231e-03 5.497352e-06) (0.000000e+00 0.000000e+00 0.000000e+00)) ((-9.590161e-04 -4.718663e-04 -3.600777e+00) (-4.992778e-07 -5.122002e-06 7.001153e-04) (0.000000e+00 0.000000e+00 0.000000e+00))
3.000000e-03	((1.542134e+01 -2.569002e+01 -7.745367e-04) (9.708056e-03 2.399969e-03 7.450223e-06) (0.000000e+00 0.000000e+00 0.000000e+00)) ((-1.462447e-03 -1.496117e-03 -6.125059e+00) (-3.978939e-06 1.857176e-06 1.150796e-03) (0.000000e+00 0.000000e+00 0.000000e+00))
4.000000e-03	((1.692130e+01 -2.956877e+01 -1.184411e-03) (1.282828e-02 4.056149e-03 6.539387e-06) (0.000000e+00 0.000000e+00 0.000000e+00)) ((-2.933364e-03 -4.610139e-03 -6.739345e+00) (-5.164741e-06 2.937614e-06 1.865482e-03) (0.000000e+00 0.000000e+00 0.000000e+00))
5.000000e-03	((1.671372e+01 -3.136248e+01 -1.606989e-03) (1.576398e-02 5.319532e-03 1.465094e-05) (0.000000e+00 0.000000e+00 0.000000e+00)) ((1.010393e-02 -6.144859e-03 -6.738178e+00) (-3.709390e-06 1.827482e-05 2.490977e-03) (0.000000e+00 0.000000e+00 0.000000e+00))
6.000000e-03	((1.675632e+01 -3.419058e+01 -3.604742e-03) (1.792195e-02 6.339113e-03 1.017465e-05) (0.000000e+00 0.000000e+00 0.000000e+00)) ((3.639325e-02 7.047178e-04 -6.928835e+00) (-5.517853e-06 1.877467e-05 2.967790e-03) (0.000000e+00 0.000000e+00 0.000000e+00))
7.000000e-03	((1.758484e+01 -3.853522e+01 -2.124140e-03) (1.953343e-02 7.033826e-03 4.384066e-06) (0.000000e+00 0.000000e+00 0.000000e+00)) ((4.619089e-02 7.120650e-04 -7.478169e+00) (-3.637729e-06 1.693999e-05 3.299629e-03) (0.000000e+00 0.000000e+00 0.000000e+00))
8.000000e-03	((1.983038e+01 -4.512704e+01 1.532306e-03) (2.083945e-02 7.537471e-03 4.694157e-07) (0.000000e+00 0.000000e+00 0.000000e+00)) ((4.392382e-02 -1.268708e-03 -8.615409e+00) (-2.133005e-06 1.666747e-05 3.553335e-03) (0.000000e+00 0.000000e+00 0.000000e+00))
9.000000e-03	((2.317620e+01 -5.339240e+01 3.304013e-03) (2.204278e-02 7.896184e-03 8.809484e-07) (0.000000e+00 0.000000e+00 0.000000e+00)) ((2.706212e-02 -3.249874e-03 -1.018959e+01) (-8.610230e-07 1.263529e-05 3.744964e-03) (0.000000e+00 0.000000e+00 0.000000e+00))
1.000000e-02	((2.684495e+01 -6.196910e+01 3.188182e-03) (2.324133e-02 8.127040e-03 8.498930e-08) (0.000000e+00 0.000000e+00 0.000000e+00)) ((1.059689e-02 -2.671670e-03 -1.186184e+01) (-2.877744e-06 8.875742e-06 3.910892e-03) (0.000000e+00 0.000000e+00 0.000000e+00))
1.100000e-02	((3.009603e+01 -6.977279e+01 2.554903e-03) (2.442280e-02 8.332912e-03 6.338172e-06) (0.000000e+00 0.000000e+00 0.000000e+00)) ((-5.626249e-04 -7.120797e-04 -1.334806e+01) (-3.957304e-06 2.736404e-06 4.069347e-03) (0.000000e+00 0.000000e+00 0.000000e+00))
1.200000e-02	((3.322343e+01 -7.738566e+01 2.602415e-04) (2.562170e-02 8.484007e-03 9.342466e-06) (0.000000e+00 0.000000e+00 0.000000e+00)) ((-1.495549e-02 4.315249e-04 -1.476935e+01) (-5.949479e-06 -1.816833e-06 4.220186e-03) (0.000000e+00 0.000000e+00 0.000000e+00))
1.300000e-02	((3.626178e+01 -8.497295e+01 -1.631685e-03) (2.684182e-02 8.641042e-03 2.552993e-06) (0.000000e+00 0.000000e+00 0.000000e+00)) ((-2.214702e-02 -4.981997e-04 -1.615525e+01) (-7.339232e-06 -3.152191e-06 4.378069e-03) (0.000000e+00 0.000000e+00 0.000000e+00))
1.400000e-02	((3.937899e+01 -9.289570e+01 -3.508565e-03) (2.806429e-02 8.818143e-03 -5.251675e-06) (0.000000e+00 0.000000e+00 0.000000e+00)) ((-2.232067e-02 -1.476877e-03 -1.758534e+01) (-7.059720e-06 -1.442173e-06 4.546215e-03) (0.000000e+00 0.000000e+00 0.000000e+00))
1.500000e-02	((4.282822e+01 -1.014455e+02 -2.032533e-03) (2.928863e-02 9.025886e-03 -1.261873e-05) (0.000000e+00 0.000000e+00 0.000000e+00)) ((-3.478583e-03 -5.909492e-04 -1.914755e+01) (-7.111397e-06 1.775094e-06 4.720902e-03) (0.000000e+00 0.000000e+00 0.000000e+00))
1.600000e-02	((4.704060e+01 -1.115445e+02 -1.150343e-03) (3.054684e-02 9.265282e-03 -1.583074e-05) (0.000000e+00 0.000000e+00 0.000000e+00)) ((-9.067186e-03 -5.655717e-03 -2.103764e+01) (-6.624946e-06 -9.326416e-07 4.903631e-03) (0.000000e+00 0.000000e+00 0.000000e+00))
1.700000e-02	((5.207441e+01 -1.234134e+02 -2.966538e-04) (3.180928e-02 9.511685e-03 -1.499462e-05) (0.000000e+00 0.000000e+00 0.000000e+00)) ((-2.439693e-02 -1.479052e-02 -2.327974e+01) (-6.234579e-06 -1.661941e-06 5.088084e-03) (0.000000e+00 0.000000e+00 0.000000e+00))
1.800000e-02	((5.771708e+01 -1.369426e+02 -5.909283e-04) (3.314246e-02 9.758267e-03 -1.726283e-05) (0.000000e+00 0.000000e+00 0.000000e+00)) ((-3.229515e-02 -1.889764e-02 -2.581240e+01) (-4.662994e-06 -1.567160e-06 5.274885e-03) (0.000000e+00 0.000000e+00 0.000000e+00))
1.900000e-02	((6.360704e+01 -1.514498e+02 -7.803161e-04) (3.449810e-02 9.969232e-03 -1.908336e-05) (0.000000e+00 0.000000e+00 0.000000e+00)) ((-2.958710e-02 -1.789949e-02 -2.847838e+01) (-3.204351e-06 -2.046894e-06 5.454328e-03) (0.000000e+00 0.000000e+00 0.000000e+00))
2.000000e-02	((6.945854e+01 -1.663577e+02 -2.604077e-03) (3.586524e-02 1.014019e-02 -2.572938e-05) (0.000000e+00 0.000000e+00 0.000000e+00)) ((-2.003231e-03 -4.172847e-03 -3.116726e+01) (-9.832117e-07 -2.151680e-06 5.624359e-03) (0.000000e+00 0.000000e+00 0.000000e+00))
2.100000e-02	((7.505783e+01 -1.811501e+02 -5.917246e-03) (3.718865e-02 1.027465e-02 -3.465297e-05) (0.000000e+00 0.000000e+00 0.000000e+00)) ((1.875468e-02 6.664940e-03 -3.378307e+01) (-4.735873e-07 -6.896850e-07 5.785638e-03) (0.000000e+00 0.000000e+00 0.000000e+00))
2.200000e-02	((8.024603e+01 -1.954339e+02 -9.392885e-03) (3.845475e-02 1.040411e-02 -4.346519e-05) (0.000000e+00 0.000000e+00 0.000000e+00)) ((4.397972e-02 1.740296e-02 -3.625395e+01) (1.365446e-06 1.189476e-06 5.943791e-03) (0.000000e+00 0.000000e+00 0.000000e+00))
2.300000e-02	((8.517753e+01 -2.093670e+02 -9.720729e-03) (3.968180e-02 1.056626e-02 -5.777321e-05) (0.000000e+00 0.000000e+00 0.000000e+00)) ((7.805271e-02 2.483364e-02 -3.863288e+01) (2.859770e-06 5.251674e-06 6.111283e-03) (0.000000e+00 0.000000e+00 0.000000e+00))
2.400000e-02	((9.025571e+01 -2.236608e+02 -9.152130e-03) (4.088206e-02 1.075776e-02 -6.825511e-05) (0.000000e+00 0.000000e+00 0.000000e+00)) ((1.243676e-01 3.245967e-02 -4.108838e+01) (2.805163e-06 8.991364e-06 6.287727e-03) (0.000000e+00 0.000000e+00 0.000000e+00))
2.500000e-02	((9.591480e+01 -2.390618e+02 -4.843211e-03) (4.202441e-02 1.095915e-02 -7.166828e-05) (0.000000e+00 0.000000e+00 0.000000e+00)) ((1.495950e-01 2.664900e-02 -4.378616e+01) (5.657940e-06 9.120439e-06 6.466105e-03) (0.000000e+00 0.000000e+00 0.000000e+00))
2.600000e-02	((1.023678e+02 -2.560307e+02 5.479307e-04) (4.315625e-02 1.116129e-02 -6.919217e-05) (0.000000e+00 0.000000e+00 0.000000e+00)) ((1.741724e-01 2.179716e-02 -4.682167e+01) (8.793248e-06 7.019939e-06 6.644607e-03) (0.000000e+00 0.000000e+00 0.000000e+00))
2.700000e-02	((1.096899e+02 -2.747176e+02 6.129759e-03) (4.426763e-02 1.133930e-02 -6.648509e-05) (0.000000e+00 0.000000e+00 0.000000e+00)) ((1.818363e-01 1.330805e-02 -5.021880e+01) (1.116403e-05 4.141656e-06 6.818416e-03) (0.000000e+00 0.000000e+00 0.000000e+00))
2.800000e-02	((1.177511e+02 -2.950481e+02 9.928552e-03) (4.539172e-02 1.150034e-02 -6.055081e-05) (0.000000e+00 0.000000e+00 0.000000e+00)) ((1.807938e-01 4.128921e-03 -5.393908e+01) (1.429736e-05 -1.825308e-06 6.990075e-03) (0.000000e+00 0.000000e+00 0.000000e+00))
2.900000e-02	((1.263002e+02 -3.164644e+02 1.138233e-02) (4.648581e-02 1.162544e-02 -6.144767e-05) (0.000000e+00 0.000000e+00 0.000000e+00)) ((1.642042e-01 -6.920106e-03 -5.786580e+01) (1.551230e-05 -5.031648e-06 7.152756e-03) (0.000000e+00 0.000000e+00 0.000000e+00))
3.000000e-02	((1.349834e+02 -3.384129e+02 1.252264e-02) (4.755031e-02 1.172845e-02 -5.926702e-05) (0.000000e+00 0.000000e+00 0.000000e+00)) ((1.351013e-01 -2.069360e-02 -6.185503e+01) (1.773774e-05 -9.063262e-06 7.310380e-03) (0.000000e+00 0.000000e+00 0.000000e+00))
3.100000e-02	((1.436624e+02 -3.605039e+02 1.226647e-02) (4.849729e-02 1.178584e-02 -6.228683e-05) (0.000000e+00 0.000000e+00 0.000000e+00)) ((9.339854e-02 -4.117594e-02 -6.584156e+01) (1.735885e-05 -9.226122e-06 7.451407e-03) (0.000000e+00 0.000000e+00 0.000000e+00))
3.200000e-02	((1.523089e+02 -3.826412e+02 9.687478e-03) (4.933619e-02 1.182107e-02 -5.968210e-05) (0.000000e+00 0.000000e+00 0.000000e+00)) ((5.090389e-02 -5.686080e-02 -6.981653e+01) (1.823281e-05 -1.231301e-05 7.583862e-03) (0.000000e+00 0.000000e+00 0.000000e+00))
3.300000e-02	((1.610762e+02 -4.049399e+02 5.603271e-03) (5.022840e-02 1.189013e-02 -6.859356e-05) (0.000000e+00 0.000000e+00 0.000000e+00)) ((3.569447e-02 -5.902800e-02 -7.384362e+01) (1.766082e-05 -8.328741e-06 7.727839e-03) (0.000000e+00 0.000000e+00 0.000000e+00))
3.400000e-02	((1.700891e+02 -4.276901e+02 2.425222e-03) (5.110603e-02 1.198016e-02 -7.328114e-05) (0.000000e+00 0.000000e+00 0.000000e+00)) ((4.591624e-02 -5.380521e-02 -7.798072e+01) (1.894361e-05 -8.147179e-06 7.875570e-03) (0.000000e+00 0.000000e+00 0.000000e+00))
3.500000e-02	((1.796139e+02 -4.513619e+02 -7.656527e-04) (5.205751e-02 1.212289e-02 -6.406622e-05) (0.000000e+00 0.000000e+00 0.000000e+00)) ((5.573956e-02 -4.481348e-02 -8.233978e+01) (1.932389e-05 -1.897260e-05 8.040139e-03) (0.000000e+00 0.000000e+00 0.000000e+00))
3.600000e-02	((1.896399e+02 -4.760435e+02 -1.710161e-03) (5.315485e-02 1.232760e-02 -7.478544e-05) (0.000000e+00 0.000000e+00 0.000000e+00)) ((5.304786e-02 -4.122702e-02 -8.691738e+01) (1.801419e-05 -1.541409e-05 8.224858e-03) (0.000000e+00 0.000000e+00 0.000000e+00))
3.700000e-02	((2.002376e+02 -5.017496e+02 2.875165e-03) (5.429786e-02 1.254745e-02 -8.055528e-05) (0.000000e+00 0.000000e+00 0.000000e+00)) ((5.903784e-02 -4.165331e-02 -9.172885e+01) (1.638741e-05 -1.288676e-05 8.414019e-03) (0.000000e+00 0.000000e+00 0.000000e+00))
3.800000e-02	((2.111210e+02 -5.279499e+02 6.890374e-03) (5.541210e-02 1.279034e-02 -9.254056e-05) (0.000000e+00 0.000000e+00 0.000000e+00)) ((1.887303e-02 -5.655710e-02 -9.664882e+01) (1.499919e-05 -1.073322e-05 8.606076e-03) (0.000000e+00 0.000000e+00 0.000000e+00))
3.900000e-02	((2.224506e+02 -5.549775e+02 1.019038e-02) (5.657804e-02 1.304978e-02 -1.060298e-04) (0.000000e+00 0.000000e+00 0.000000e+00)) ((-1.678565e-02 -6.990843e-02 -1.017540e+02) (1.550627e-05 -7.730986e-06 8.804561e-03) (0.000000e+00 0.000000e+00 0.000000e+00))
4.000000e-02	((2.339487e+02 -5.821346e+02 1.348946e-02) (5.782273e-02 1.333396e-02 -1.176824e-04) (0.000000e+00 0.000000e+00 0.000000e+00)) ((-2.773694e-02 -7.543002e-02 -1.069224e+02) (1.245001e-05 -7.562941e-06 9.011701e-03) (0.000000e+00 0.000000e+00 0.000000e+00))
4.100000e-02	((2.457469e+02 -6.097533e+02 1.706683e-02) (5.915231e-02 1.363028e-02 -1.317024e-04) (0.000000e+00 0.000000e+00 0.000000e+00)) ((-4.205839e-02 -8.117603e-02 -1.122155e+02) (1.092744e-05 -4.213462e-06 9.228547e-03) (0.000000e+00 0.000000e+00 0.000000e+00))
4.200000e-02	((2.577262e+02 -6.375953e+02 1.858816e-02) (6.056686e-02 1.396321e-02 -1.400012e-04) (0.000000e+00 0.000000e+00 0.000000e+00)) ((-5.078198e-02 -8.478842e-02 -1.175981e+02) (9.065910e-06 -4.163485e-06 9.455130e-03) (0.000000e+00 0.000000e+00 0.000000e+00))
4.300000e-02	((2.700379e+02 -6.660240e+02 1.869065e-02) (6.201845e-02 1.431426e-02 -1.512561e-04) (0.000000e+00 0.000000e+00 0.000000e+00)) ((-5.553109e-02 -8.278030e-02 -1.231344e+02) (1.098289e-05 9.655522e-08 9.687722e-03) (0.000000e+00 0.000000e+00 0.000000e+00))
4.400000e-02	((2.826609e+02 -6.951236e+02 1.509879e-02) (6.350691e-02 1.471112e-02 -1.608374e-04) (0.000000e+00 0.000000e+00 0.000000e+00)) ((-9.209605e-02 -9.561669e-02 -1.288355e+02) (8.545097e-06 5.109549e-06 9.927239e-03) (0.000000e+00 0.000000e+00 0.000000e+00))
4.500000e-02	((2.956863e+02 -7.249768e+02 8.928856e-03) (6.500879e-02 1.512207e-02 -1.716226e-04) (0.000000e+00 0.000000e+00 0.000000e+00)) ((-9.184533e-02 -9.067965e-02 -1.347254e+02) (8.477964e-06 1.024000e-05 1.016983e-02) (0.000000e+00 0.000000e+00 0.000000e+00))
4.600000e-02	((3.091149e+02 -7.554549e+02 1.743556e-03) (6.660875e-02 1.556335e-02 -1.841508e-04) (0.000000e+00 0.000000e+00 0.000000e+00)) ((-1.122630e-01 -8.180518e-02 -1.408298e+02) (4.822494e-06 1.943915e-05 1.042294e-02) (0.000000e+00 0.000000e+00 0.000000e+00))
4.700000e-02	((3.226390e+02 -7.858404e+02 -7.856367e-03) (6.825141e-02 1.601084e-02 -2.018596e-04) (0.000000e+00 0.000000e+00 0.000000e+00)) ((-1.040962e-01 -5.344717e-02 -1.469835e+02) (4.061819e-06 3.066407e-05 1.068165e-02) (0.000000e+00 0.000000e+00 0.000000e+00))
4.800000e-02	((3.364308e+02 -8.166330e+02 -1.338712e-02) (6.994504e-02 1.649720e-02 -2.209908e-04) (0.000000e+00 0.000000e+00 0.000000e+00)) ((-1.279598e-01 -4.313623e-02 -1.532815e+02) (2.805821e-07 4.298995e-05 1.094838e-02) (0.000000e+00 0.000000e+00 0.000000e+00))
4.900000e-02	((3.504945e+02 -8.477742e+02 -1.644567e-02) (7.167499e-02 1.699659e-02 -2.396700e-04) (0.000000e+00 0.000000e+00 0.000000e+00)) ((-8.734200e-02 -5.796062e-03 -1.596987e+02) (-1.898632e-06 5.353969e-05 1.122307e-02) (0.000000e+00 0.000000e+00 0.000000e+00))
5.000000e-02	((3.649423e+02 -8.798616e+02 -1.625829e-02) (7.345629e-02 1.753772e-02 -2.525841e-04) (0.000000e+00 0.000000e+00 0.000000e+00)) ((-8.970860e-02 1.401022e-02 -1.663219e+02) (-4.288524e-06 6.293749e-05 1.150757e-02) (0.000000e+00 0.000000e+00 0.000000e+00))
5.100000e-02	((3.797279e+02 -9.128775e+02 -1.897506e-02) (7.525905e-02 1.809115e-02 -2.615981e-04) (0.000000e+00 0.000000e+00 0.000000e+00)) ((-1.233253e-01 2.699748e-02 -1.731280e+02) (-6.014881e-06 7.064905e-05 1.179977e-02) (0.000000e+00 0.000000e+00 0.000000e+00))
5.200000e-02	((3.946928e+02 -9.467793e+02 -1.985194e-02) (7.706439e-02 1.866239e-02 -2.669674e-04) (0.000000e+00 0.000000e+00 0.000000e+00)) ((-1.363967e-01 4.006310e-02 -1.800761e+02) (-9.753197e-06 7.793384e-05 1.209580e-02) (0.000000e+00 0.000000e+00 0.000000e+00))
5.300000e-02	((4.098504e+02 -9.816409e+02 -2.361833e-02) (7.883657e-02 1.922156e-02 -2.703423e-04) (0.000000e+00 0.000000e+00 0.000000e+00)) ((-1.395317e-01 6.434025e-02 -1.871781e+02) (-1.357751e-05 8.488406e-05 1.239127e-02) (0.000000e+00 0.000000e+00 0.000000e+00))
5.400000e-02	((4.250310e+02 -1.017182e+03 -3.025597e-02) (8.055111e-02 1.978988e-02 -2.750503e-04) (0.000000e+00 0.000000e+00 0.000000e+00)) ((-1.496400e-01 8.102975e-02 -1.943740e+02) (-1.812426e-05 9.142190e-05 1.268638e-02) (0.000000e+00 0.000000e+00 0.000000e+00))
5.500000e-02	((4.398951e+02 -1.052594e+03 -3.659049e-02) (8.218784e-02 2.033760e-02 -2.877286e-04) (0.000000e+00 0.000000e+00 0.000000e+00)) ((-1.536487e-01 1.007808e-01 -2.015024e+02) (-2.165345e-05 1.013716e-04 1.297660e-02) (0.000000e+00 0.000000e+00 0.000000e+00))
5.600000e-02	((4.544968e+02 -1.088113e+03 -4.063267e-02) (8.373630e-02 2.087704e-02 -3.049925e-04) (0.000000e+00 0.000000e+00 0.000000e+00)) ((-1.158354e-01 1.254580e-01 -2.086069e+02) (-2.637070e-05 1.110866e-04 1.326214e-02) (0.000000e+00 0.000000e+00 0.000000e+00))
5.700000e-02	((4.689797e+02 -1.123932e+03 -4.240134e-02) (8.518175e-02 2.138600e-02 -3.149606e-04) (0.000000e+00 0.000000e+00 0.000000e+00)) ((-5.060709e-02 1.518127e-01 -2.157429e+02) (-2.860266e-05 1.201929e-04 1.353947e-02) (0.000000e+00 0.000000e+00 0.000000e+00))
5.800000e-02	((4.835166e+02 -1.160487e+03 -4.434476e-02) (8.652705e-02 2.189406e-02 -3.232376e-04) (0.000000e+00 0.000000e+00 0.000000e+00)) ((2.427251e-02 1.787343e-01 -2.229855e+02) (-3.062715e-05 1.282035e-04 1.381311e-02) (0.000000e+00 0.000000e+00 0.000000e+00))
5.900000e-02	((4.982078e+02 -1.197981e+03 -4.479322e-02) (8.776355e-02 2.236040e-02 -3.285392e-04) (0.000000e+00 0.000000e+00 0.000000e+00)) ((1.321762e-01 2.103859e-01 -2.303751e+02) (-3.135602e-05 1.351862e-04 1.407594e-02) (0.000000e+00 0.000000e+00 0.000000e+00))
6.000000e-02	((5.133147e+02 -1.236957e+03 -4.429750e-02) (8.888078e-02 2.280960e-02 -3.311522e-04) (0.000000e+00 0.000000e+00 0.000000e+00)) ((2.570086e-01 2.472199e-01 -2.380188e+02) (-3.178026e-05 1.388164e-04 1.433088e-02) (0.000000e+00 0.000000e+00 0.000000e+00))
6.100000e-02	((5.285963e+02 -1.276940e+03 -4.164971e-02) (8.988111e-02 2.319607e-02 -3.314440e-04) (0.000000e+00 0.000000e+00 0.000000e+00)) ((3.886133e-01 2.756723e-01 -2.458169e+02) (-3.260218e-05 1.437166e-04 1.456771e-02) (0.000000e+00 0.000000e+00 0.000000e+00))
6.200000e-02	((5.439254e+02 -1.317789e+03 -3.697323e-02) (9.074029e-02 2.355317e-02 -3.401675e-04) (0.000000e+00 0.000000e+00 0.000000e+00)) ((4.952835e-01 2.789396e-01 -2.537215e+02) (-3.328571e-05 1.505774e-04 1.478873e-02) (0.000000e+00 0.000000e+00 0.000000e+00))
6.300000e-02	((5.592233e+02 -1.359293e+03 -2.813371e-02) (9.144534e-02 2.384793e-02 -3.328245e-04) (0.000000e+00 0.000000e+00 0.000000e+00)) ((5.899142e-01 2.603293e-01 -2.617056e+02) (-3.379061e-05 1.507004e-04 1.498642e-02) (0.000000e+00 0.000000e+00 0.000000e+00))
6.400000e-02	((5.743219e+02 -1.401123e+03 -1.232141e-02) (9.198967e-02 2.410686e-02 -3.347371e-04) (0.000000e+00 0.000000e+00 0.000000e+00)) ((6.543478e-01 2.238839e-01 -2.696912e+02) (-3.204135e-05 1.502507e-04 1.516345e-02) (0.000000e+00 0.000000e+00 0.000000e+00))
6.500000e-02	((5.889598e+02 -1.442651e+03 4.346492e-03) (9.234171e-02 2.430547e-02 -3.351734e-04) (0.000000e+00 0.000000e+00 0.000000e+00)) ((7.184835e-01 1.963913e-01 -2.775652e+02) (-3.213678e-05 1.525544e-04 1.531073e-02) (0.000000e+00 0.000000e+00 0.000000e+00))
6.600000e-02	((6.032422e+02 -1.483906e+03 2.735179e-02) (9.247901e-02 2.445032e-02 -3.310204e-04) (0.000000e+00 0.000000e+00 0.000000e+00)) ((7.831822e-01 1.786016e-01 -2.853445e+02) (-2.893103e-05 1.487512e-04 1.542811e-02) (0.000000e+00 0.000000e+00 0.000000e+00))
6.700000e-02	((6.171222e+02 -1.524695e+03 5.235367e-02) (9.241402e-02 2.452645e-02 -3.247075e-04) (0.000000e+00 0.000000e+00 0.000000e+00)) ((8.469219e-01 1.709916e-01 -2.929976e+02) (-2.796135e-05 1.464645e-04 1.551547e-02) (0.000000e+00 0.000000e+00 0.000000e+00))
6.800000e-02	((6.305032e+02 -1.564828e+03 7.930314e-02) (9.212868e-02 2.457327e-02 -3.180790e-04) (0.000000e+00 0.000000e+00 0.000000e+00)) ((9.105198e-01 1.722556e-01 -3.004854e+02) (-2.330602e-05 1.419954e-04 1.557580e-02) (0.000000e+00 0.000000e+00 0.000000e+00))
6.900000e-02	((6.433180e+02 -1.603656e+03 9.509265e-02) (9.163656e-02 2.457769e-02 -3.002083e-04) (0.000000e+00 0.000000e+00 0.000000e+00)) ((9.527217e-01 1.721571e-01 -3.077040e+02) (-2.247925e-05 1.353064e-04 1.561046e-02) (0.000000e+00 0.000000e+00 0.000000e+00))
7.000000e-02	((6.556552e+02 -1.641333e+03 1.141898e-01) (9.098270e-02 2.457620e-02 -2.923074e-04) (0.000000e+00 0.000000e+00 0.000000e+00)) ((9.301360e-01 1.381393e-01 -3.147067e+02) (-1.809504e-05 1.295366e-04 1.562294e-02) (0.000000e+00 0.000000e+00 0.000000e+00))
7.100000e-02	((6.675911e+02 -1.677625e+03 1.246589e-01) (9.015044e-02 2.455530e-02 -2.796353e-04) (0.000000e+00 0.000000e+00 0.000000e+00)) ((8.528280e-01 8.844535e-02 -3.214921e+02) (-1.579520e-05 1.243913e-04 1.561335e-02) (0.000000e+00 0.000000e+00 0.000000e+00))
7.200000e-02	((6.790738e+02 -1.712184e+03 1.309819e-01) (8.916456e-02 2.454027e-02 -2.598307e-04) (0.000000e+00 0.000000e+00 0.000000e+00)) ((7.530341e-01 2.947255e-02 -3.280035e+02) (-1.303572e-05 1.155145e-04 1.558793e-02) (0.000000e+00 0.000000e+00 0.000000e+00))
7.300000e-02	((6.902095e+02 -1.745078e+03 1.365243e-01) (8.808301e-02 2.452978e-02 -2.456660e-04) (0.000000e+00 0.000000e+00 0.000000e+00)) ((6.607811e-01 -2.474303e-02 -3.342719e+02) (-1.091107e-05 1.117482e-04 1.555220e-02) (0.000000e+00 0.000000e+00 0.000000e+00))
7.400000e-02	((7.010693e+02 -1.776477e+03 1.458819e-01) (8.691682e-02 2.450436e-02 -2.267237e-04) (0.000000e+00 0.000000e+00 0.000000e+00)) ((6.201989e-01 -6.200625e-02 -3.403229e+02) (-1.277130e-05 1.076693e-04 1.550374e-02) (0.000000e+00 0.000000e+00 0.000000e+00))
7.500000e-02	((7.116886e+02 -1.806402e+03 1.570039e-01) (8.570120e-02 2.449366e-02 -1.989316e-04) (0.000000e+00 0.000000e+00 0.000000e+00)) ((5.828993e-01 -9.910788e-02 -3.461594e+02) (-7.678031e-06 9.394266e-05 1.545068e-02) (0.000000e+00 0.000000e+00 0.000000e+00))
7.600000e-02	((7.220723e+02 -1.834753e+03 1.697347e-01) (8.437306e-02 2.455178e-02 -1.800335e-04) (0.000000e+00 0.000000e+00 0.000000e+00)) ((5.122580e-01 -1.489165e-01 -3.517632e+02) (-7.926998e-06 9.499617e-05 1.539424e-02) (0.000000e+00 0.000000e+00 0.000000e+00))
7.700000e-02	((7.324983e+02 -1.861996e+03 1.860354e-01) (8.291690e-02 2.466111e-02 -1.601422e-04) (0.000000e+00 0.000000e+00 0.000000e+00)) ((4.258571e-01 -2.028127e-01 -3.572371e+02) (-9.161271e-06 9.520195e-05 1.533202e-02) (0.000000e+00 0.000000e+00 0.000000e+00))
7.800000e-02	((7.430470e+02 -1.888294e+03 1.991934e-01) (8.140379e-02 2.485592e-02 -1.377390e-04) (0.000000e+00 0.000000e+00 0.000000e+00)) ((3.316399e-01 -2.572631e-01 -3.626164e+02) (-1.317371e-05 9.265549e-05 1.527052e-02) (0.000000e+00 0.000000e+00 0.000000e+00))
7.900000e-02	((7.536992e+02 -1.913345e+03 2.083576e-01) (7.993011e-02 2.512276e-02 -1.108440e-04) (0.000000e+00 0.000000e+00 0.000000e+00)) ((1.946239e-01 -3.193236e-01 -3.678871e+02) (-1.889148e-05 8.531576e-05 1.521635e-02) (0.000000e+00 0.000000e+00 0.000000e+00))
8.000000e-02	((7.644738e+02 -1.937471e+03 2.130741e-01) (7.852792e-02 2.540363e-02 -8.652309e-05) (0.000000e+00 0.000000e+00 0.000000e+00)) ((4.182328e-02 -3.703924e-01 -3.730817e+02) (-2.933458e-05 8.223902e-05 1.517181e-02) (0.000000e+00 0.000000e+00 0.000000e+00))
8.100000e-02	((7.753150e+02 -1.960810e+03 2.155533e-01) (7.721056e-02 2.565103e-02 -6.164052e-05) (0.000000e+00 0.000000e+00 0.000000e+00)) ((-1.100088e-01 -4.149591e-01 -3.781998e+02) (-3.511473e-05 8.427860e-05 1.513222e-02) (0.000000e+00 0.000000e+00 0.000000e+00))
8.200000e-02	((7.863385e+02 -1.983331e+03 2.151689e-01) (7.593547e-02 2.588664e-02 -4.531573e-05) (0.000000e+00 0.000000e+00 0.000000e+00)) ((-2.210364e-01 -4.411616e-01 -3.832711e+02) (-4.281591e-05 9.150824e-05 1.509386e-02) (0.000000e+00 0.000000e+00 0.000000e+00))
8.300000e-02	((7.974668e+02 -2.004755e+03 2.176693e-01) (7.470053e-02 2.607023e-02 -3.458232e-05) (0.000000e+00 0.000000e+00 0.000000e+00)) ((-2.630064e-01 -4.485468e-01 -3.882455e+02) (-4.990509e-05 9.368661e-05 1.504967e-02) (0.000000e+00 0.000000e+00 0.000000e+00))
8.400000e-02	((8.088702e+02 -2.025144e+03 2.219136e-01) (7.350250e-02 2.625171e-02 -2.617506e-05) (0.000000e+00 0.000000e+00 0.000000e+00)) ((-2.437391e-01 -4.307765e-01 -3.931673e+02) (-5.795199e-05 1.021155e-04 1.500505e-02) (0.000000e+00 0.000000e+00 0.000000e+00))
8.500000e-02	((8.206008e+02 -2.044316e+03 2.279259e-01) (7.239350e-02 2.642963e-02 -6.978478e-06) (0.000000e+00 0.000000e+00 0.000000e+00)) ((-2.074834e-01 -4.185879e-01 -3.980356e+02) (-6.759867e-05 9.852595e-05 1.496316e-02) (0.000000e+00 0.000000e+00 0.000000e+00))
8.600000e-02	((8.326596e+02 -2.062284e+03 2.352253e-01) (7.138036e-02 2.664644e-02 1.189823e-06) (0.000000e+00 0.000000e+00 0.000000e+00)) ((-1.637998e-01 -4.050041e-01 -4.028586e+02) (-7.866712e-05 1.101587e-04 1.492891e-02) (0.000000e+00 0.000000e+00 0.000000e+00))
8.700000e-02	((8.452495e+02 -2.079765e+03 2.470665e-01) (7.045355e-02 2.685560e-02 6.293449e-06) (0.000000e+00 0.000000e+00 0.000000e+00)) ((-1.815701e-01 -4.102822e-01 -4.077489e+02) (-8.755110e-05 1.140792e-04 1.489235e-02) (0.000000e+00 0.000000e+00 0.000000e+00))
8.800000e-02	((8.581222e+02 -2.096521e+03 2.599753e-01) (6.958358e-02 2.702232e-02 1.387207e-05) (0.000000e+00 0.000000e+00 0.000000e+00)) ((-2.763694e-01 -4.370290e-01 -4.126136e+02) (-9.998377e-05 1.300243e-04 1.485127e-02) (0.000000e+00 0.000000e+00 0.000000e+00))
8.900000e-02	((8.710693e+02 -2.112381e+03 2.756325e-01) (6.878633e-02 2.714378e-02 2.296509e-05) (0.000000e+00 0.000000e+00 0.000000e+00)) ((-3.643594e-01 -4.424378e-01 -4.173886e+02) (-1.120615e-04 1.373169e-04 1.480278e-02) (0.000000e+00 0.000000e+00 0.000000e+00))
9.000000e-02	((8.838764e+02 -2.126846e+03 2.872708e-01) (6.813919e-02 2.725438e-02 4.574449e-05) (0.000000e+00 0.000000e+00 0.000000e+00)) ((-3.823910e-01 -4.318718e-01 -4.220018e+02) (-1.212629e-04 1.322388e-04 1.476052e-02) (0.000000e+00 0.000000e+00 0.000000e+00))
9.100000e-02	((8.962253e+02 -2.139637e+03 2.977840e-01) (6.756622e-02 2.734795e-02 6.870178e-05) (0.000000e+00 0.000000e+00 0.000000e+00)) ((-3.452382e-01 -4.019086e-01 -4.263526e+02) (-1.271994e-04 1.203104e-04 1.471539e-02) (0.000000e+00 0.000000e+00 0.000000e+00))
9.200000e-02	((9.080124e+02 -2.150085e+03 2.985045e-01) (6.712535e-02 2.743845e-02 9.708125e-05) (0.000000e+00 0.000000e+00 0.000000e+00)) ((-2.783529e-01 -3.629344e-01 -4.303942e+02) (-1.350946e-04 1.102734e-04 1.467462e-02) (0.000000e+00 0.000000e+00 0.000000e+00))
9.300000e-02	((9.192849e+02 -2.158932e+03 3.046895e-01) (6.678396e-02 2.750648e-02 1.196850e-04) (0.000000e+00 0.000000e+00 0.000000e+00)) ((-1.204968e-01 -2.970534e-01 -4.341932e+02) (-1.412570e-04 9.455149e-05 1.463222e-02) (0.000000e+00 0.000000e+00 0.000000e+00))
9.400000e-02	((9.296498e+02 -2.165122e+03 3.034281e-01) (6.661539e-02 2.757767e-02 1.529724e-04) (0.000000e+00 0.000000e+00 0.000000e+00)) ((-8.493212e-02 -2.542412e-01 -4.375778e+02) (-1.435629e-04 7.979791e-05 1.460044e-02) (0.000000e+00 0.000000e+00 0.000000e+00))
9.500000e-02	((9.394884e+02 -2.170267e+03 3.126742e-01) (6.655428e-02 2.762528e-02 1.799597e-04) (0.000000e+00 0.000000e+00 0.000000e+00)) ((-1.210273e-02 -2.089613e-01 -4.407744e+02) (-1.483347e-04 6.473371e-05 1.457082e-02) (0.000000e+00 0.000000e+00 0.000000e+00))
9.600000e-02	((9.484995e+02 -2.173324e+03 3.168092e-01) (6.662731e-02 2.766012e-02 2.242848e-04) (0.000000e+00 0.000000e+00 0.000000e+00)) ((-6.859157e-02 -1.920959e-01 -4.436457e+02) (-1.494072e-04 4.599073e-05 1.454813e-02) (0.000000e+00 0.000000e+00 0.000000e+00))
9.700000e-02	((9.569597e+02 -2.175161e+03 3.206901e-01) (6.677402e-02 2.767162e-02 2.605431e-04) (0.000000e+00 0.000000e+00 0.000000e+00)) ((2.324953e-02 -1.401660e-01 -4.463352e+02) (-1.496729e-04 3.155915e-05 1.452708e-02) (0.000000e+00 0.000000e+00 0.000000e+00))
9.800000e-02	((9.646172e+02 -2.174966e+03 3.172574e-01) (6.698697e-02 2.768154e-02 3.036573e-04) (0.000000e+00 0.000000e+00 0.000000e+00)) ((8.251390e-02 -7.250055e-02 -4.487037e+02) (-1.421924e-04 1.035409e-05 1.451069e-02) (0.000000e+00 0.000000e+00 0.000000e+00))
9.900000e-02	((9.715028e+02 -2.173308e+03 3.131754e-01) (6.726355e-02 2.772475e-02 3.315885e-04) (0.000000e+00 0.000000e+00 0.000000e+00)) ((1.817496e-01 2.065549e-02 -4.507582e+02) (-1.238777e-04 -2.204010e-05 1.450427e-02) (0.000000e+00 0.000000e+00 0.000000e+00))
1.000000e-01	((9.775063e+02 -2.170317e+03 3.043550e-01) (6.765535e-02 2.782626e-02 3.706891e-04) (0.000000e+00 0.000000e+00 0.000000e+00)) ((3.288533e-01 1.603442e-01 -4.524525e+02) (-1.116253e-04 -5.223914e-05 1.451534e-02) (0.000000e+00 0.000000e+00 0.000000e+00))
1.010000e-01	((9.824587e+02 -2.166028e+03 3.014014e-01) (6.815705e-02 2.799680e-02 4.117941e-04) (0.000000e+00 0.000000e+00 0.000000e+00)) ((5.418602e-01 3.351532e-01 -4.537038e+02) (-9.759090e-05 -7.903233e-05 1.454934e-02) (0.000000e+00 0.000000e+00 0.000000e+00))
1.020000e-01	((9.863441e+02 -2.160297e+03 2.984374e-01) (6.877243e-02 2.823118e-02 4.542257e-04) (0.000000e+00 0.000000e+00 0.000000e+00)) ((7.722667e-01 5.043206e-01 -4.544990e+02) (-7.878657e-05 -1.103850e-04 1.460667e-02) (0.000000e+00 0.000000e+00 0.000000e+00))
1.030000e-01	((9.889567e+02 -2.152892e+03 2.942761e-01) (6.954243e-02 2.856340e-02 5.207306e-04) (0.000000e+00 0.000000e+00 0.000000e+00)) ((9.099361e-01 6.044655e-01 -4.547559e+02) (-5.356736e-05 -1.656339e-04 1.469678e-02) (0.000000e+00 0.000000e+00 0.000000e+00))
1.040000e-01	((9.905285e+02 -2.144298e+03 2.853086e-01) (7.050567e-02 2.899956e-02 5.737801e-04) (0.000000e+00 0.000000e+00 0.000000e+00)) ((8.943924e-01 6.133035e-01 -4.545953e+02) (-2.761306e-05 -2.201516e-04 1.482602e-02) (0.000000e+00 0.000000e+00 0.000000e+00))
1.050000e-01	((9.912623e+02 -2.134809e+03 2.793299e-01) (7.160977e-02 2.952110e-02 6.560280e-04) (0.000000e+00 0.000000e+00 0.000000e+00)) ((8.307173e-01 5.781814e-01 -4.541085e+02) (-4.433284e-06 -2.808997e-04 1.498722e-02) (0.000000e+00 0.000000e+00 0.000000e+00))
1.060000e-01	((9.916645e+02 -2.125508e+03 2.718349e-01) (7.278605e-02 3.012368e-02 6.824646e-04) (0.000000e+00 0.000000e+00 0.000000e+00)) ((6.604200e-01 4.937949e-01 -4.535370e+02) (1.171626e-05 -3.161402e-04 1.517444e-02) (0.000000e+00 0.000000e+00 0.000000e+00))
1.070000e-01	((9.917396e+02 -2.117331e+03 2.732249e-01) (7.401318e-02 3.078351e-02 7.373713e-04) (0.000000e+00 0.000000e+00 0.000000e+00)) ((5.792205e-01 4.697152e-01 -4.529313e+02) (2.922294e-05 -3.584161e-04 1.538126e-02) (0.000000e+00 0.000000e+00 0.000000e+00))
1.080000e-01	((9.911226e+02 -2.109994e+03 2.786748e-01) (7.524560e-02 3.148600e-02 8.199913e-04) (0.000000e+00 0.000000e+00 0.000000e+00)) ((5.577759e-01 4.980408e-01 -4.521478e+02) (3.631152e-05 -4.062661e-04 1.560049e-02) (0.000000e+00 0.000000e+00 0.000000e+00))
1.090000e-01	((9.892342e+02 -2.102836e+03 2.964570e-01) (7.650560e-02 3.218233e-02 8.586518e-04) (0.000000e+00 0.000000e+00 0.000000e+00)) ((7.047716e-01 6.311007e-01 -4.509524e+02) (4.146839e-05 -4.300185e-04 1.582400e-02) (0.000000e+00 0.000000e+00 0.000000e+00))
1.100000e-01	((9.868721e+02 -2.096790e+03 3.110086e-01) (7.775322e-02 3.287222e-02 9.064349e-04) (0.000000e+00 0.000000e+00 0.000000e+00)) ((8.670358e-01 7.526368e-01 -4.496835e+02) (3.867467e-05 -4.427263e-04 1.604618e-02) (0.000000e+00 0.000000e+00 0.000000e+00))
1.110000e-01	((9.844574e+02 -2.092437e+03 3.281024e-01) (7.889234e-02 3.347678e-02 9.430987e-04) (0.000000e+00 0.000000e+00 0.000000e+00)) ((1.044221e+00 8.412121e-01 -4.485149e+02) (3.112984e-05 -4.487041e-04 1.624448e-02) (0.000000e+00 0.000000e+00 0.000000e+00))