# Force coefficients
# liftDir    : (0.000000e+00 1.000000e+00 0.000000e+00)
# dragDir    : (1.000000e+00 0.000000e+00 0.000000e+00)
# pitchAxis  : (0.000000e+00 0.000000e+00 1.000000e+00)
# magUInf    : 5.148000e+01
# lRef       : 4.530000e-01
# Aref       : 4.348800e-01
# CofR       : (0.000000e+00 0.000000e+00 0.000000e+00)
# Time       	Cm           	Cd           	Cl           	Cl(f)        	Cl(r)        	Cm	Cd	Cl	Cl(f)	Cl(r)
1.000000e-03	-1.408221e-03	1.538618e-03	-2.373161e-03	-2.594801e-03	2.216404e-04
2.000000e-03	-5.367793e-03	6.045186e-03	-9.587891e-03	-1.016174e-02	5.738473e-04
3.000000e-03	-7.929332e-03	8.969031e-03	-1.490656e-02	-1.538261e-02	4.760510e-04
4.000000e-03	-8.392403e-03	9.492501e-03	-1.665460e-02	-1.671970e-02	6.510385e-05
5.000000e-03	-8.029007e-03	9.016110e-03	-1.705921e-02	-1.655861e-02	-5.006002e-04
6.000000e-03	-7.930966e-03	8.725914e-03	-1.799440e-02	-1.692816e-02	-1.066232e-03
7.000000e-03	-8.325780e-03	8.893547e-03	-1.972218e-02	-1.818687e-02	-1.535312e-03
8.000000e-03	-9.623200e-03	1.003315e-02	-2.302773e-02	-2.113706e-02	-1.890662e-03
9.000000e-03	-1.151898e-02	1.184645e-02	-2.740877e-02	-2.522337e-02	-2.185402e-03
1.000000e-02	-1.356132e-02	1.385621e-02	-3.204399e-02	-2.958332e-02	-2.460674e-03
1.100000e-02	-1.536181e-02	1.562619e-02	-3.628356e-02	-3.350358e-02	-2.779975e-03
1.200000e-02	-1.703397e-02	1.728466e-02	-4.030896e-02	-3.718845e-02	-3.120510e-03
1.300000e-02	-1.856133e-02	1.878634e-02	-4.414031e-02	-4.063148e-02	-3.508825e-03
1.400000e-02	-2.007409e-02	2.026666e-02	-4.798255e-02	-4.406536e-02	-3.917189e-03
1.500000e-02	-2.184574e-02	2.201810e-02	-5.237405e-02	-4.803277e-02	-4.341281e-03
1.600000e-02	-2.409502e-02	2.427409e-02	-5.779061e-02	-5.299032e-02	-4.800287e-03
1.700000e-02	-2.678744e-02	2.696943e-02	-6.422094e-02	-5.889791e-02	-5.323026e-03
1.800000e-02	-2.980926e-02	2.998352e-02	-7.145101e-02	-6.553476e-02	-5.916242e-03
1.900000e-02	-3.289188e-02	3.302209e-02	-7.898517e-02	-7.238446e-02	-6.600707e-03
2.000000e-02	-3.592199e-02	3.596693e-02	-8.653821e-02	-7.919110e-02	-7.347112e-03
2.100000e-02	-3.881856e-02	3.873735e-02	-9.393279e-02	-8.578495e-02	-8.147831e-03
2.200000e-02	-4.157855e-02	4.133707e-02	-1.011369e-01	-9.214702e-02	-8.989916e-03
2.300000e-02	-4.433855e-02	4.391251e-02	-1.083751e-01	-9.852609e-02	-9.848993e-03
2.400000e-02	-4.730524e-02	4.669191e-02	-1.160050e-01	-1.053077e-01	-1.069724e-02
2.500000e-02	-5.060742e-02	4.982309e-02	-1.243199e-01	-1.127674e-01	-1.155255e-02
2.600000e-02	-5.432547e-02	5.339248e-02	-1.334877e-01	-1.210693e-01	-1.241838e-02
2.700000e-02	-5.842088e-02	5.735961e-02	-1.435022e-01	-1.301720e-01	-1.333022e-02
2.800000e-02	-6.278404e-02	6.161226e-02	-1.541516e-01	-1.398598e-01	-1.429177e-02
2.900000e-02	-6.725835e-02	6.598811e-02	-1.651463e-01	-1.498315e-01	-1.531482e-02
3.000000e-02	-7.180157e-02	7.043475e-02	-1.763918e-01	-1.599975e-01	-1.639431e-02
3.100000e-02	-7.631518e-02	7.486265e-02	-1.876399e-01	-1.701351e-01	-1.750477e-02
3.200000e-02	-8.084552e-02	7.931110e-02	-1.989221e-01	-1.803066e-01	-1.861555e-02
3.300000e-02	-8.540292e-02	8.380137e-02	-2.102655e-01	-1.905357e-01	-1.972985e-02
3.400000e-02	-9.011246e-02	8.846114e-02	-2.218807e-01	-2.010528e-01	-2.082787e-02
3.500000e-02	-9.506406e-02	9.338351e-02	-2.339488e-01	-2.120385e-01	-2.191034e-02
3.600000e-02	-1.002733e-01	9.859381e-02	-2.464909e-01	-2.235188e-01	-2.297214e-02
3.700000e-02	-1.057081e-01	1.040496e-01	-2.594978e-01	-2.354570e-01	-2.404084e-02
3.800000e-02	-1.113242e-01	1.097048e-01	-2.728743e-01	-2.477614e-01	-2.511297e-02
3.900000e-02	-1.170668e-01	1.154980e-01	-2.865505e-01	-2.603421e-01	-2.620841e-02
4.000000e-02	-1.230168e-01	1.214900e-01	-3.007260e-01	-2.733798e-01	-2.734626e-02
4.100000e-02	-1.290330e-01	1.275504e-01	-3.150843e-01	-2.865752e-01	-2.850912e-02
4.200000e-02	-1.351544e-01	1.337115e-01	-3.296015e-01	-2.999551e-01	-2.964637e-02
4.300000e-02	-1.413046e-01	1.399184e-01	-3.440438e-01	-3.133265e-01	-3.071734e-02
4.400000e-02	-1.475847e-01	1.462516e-01	-3.585695e-01	-3.268694e-01	-3.170011e-02
4.500000e-02	-1.539141e-01	1.526587e-01	-3.729773e-01	-3.404027e-01	-3.257458e-02
4.600000e-02	-1.603108e-01	1.591424e-01	-3.872425e-01	-3.539321e-01	-3.331047e-02
4.700000e-02	-1.667184e-01	1.656576e-01	-4.013242e-01	-3.673805e-01	-3.394365e-02
4.800000e-02	-1.730890e-01	1.721393e-01	-4.151320e-01	-3.806550e-01	-3.447699e-02
4.900000e-02	-1.793019e-01	1.784840e-01	-4.284219e-01	-3.935128e-01	-3.490907e-02
5.000000e-02	-1.854713e-01	1.847884e-01	-4.414391e-01	-4.061909e-01	-3.524823e-02
5.100000e-02	-1.915267e-01	1.910018e-01	-4.540562e-01	-4.185548e-01	-3.550139e-02
5.200000e-02	-1.973300e-01	1.969853e-01	-4.659239e-01	-4.302920e-01	-3.563193e-02
5.300000e-02	-2.027690e-01	2.026521e-01	-4.767825e-01	-4.411603e-01	-3.562220e-02
5.400000e-02	-2.077345e-01	2.078840e-01	-4.863629e-01	-4.509160e-01	-3.544692e-02
5.500000e-02	-2.121434e-01	2.126177e-01	-4.944647e-01	-4.593757e-01	-3.508897e-02
5.600000e-02	-2.160998e-01	2.169426e-01	-5.013097e-01	-4.667546e-01	-3.455509e-02
5.700000e-02	-2.196270e-01	2.208913e-01	-5.069749e-01	-4.731145e-01	-3.386046e-02
5.800000e-02	-2.229183e-01	2.246447e-01	-5.118442e-01	-4.788403e-01	-3.300385e-02
5.900000e-02	-2.260117e-01	2.282306e-01	-5.160951e-01	-4.840592e-01	-3.203585e-02
6.000000e-02	-2.289424e-01	2.316611e-01	-5.198678e-01	-4.888763e-01	-3.099153e-02
6.100000e-02	-2.317448e-01	2.349549e-01	-5.233252e-01	-4.934074e-01	-2.991784e-02
6.200000e-02	-2.344126e-01	2.380867e-01	-5.265126e-01	-4.976689e-01	-2.884368e-02
6.300000e-02	-2.369235e-01	2.410268e-01	-5.294574e-01	-5.016522e-01	-2.780522e-02
6.400000e-02	-2.393395e-01	2.438388e-01	-5.322889e-01	-5.054840e-01	-2.680495e-02
6.500000e-02	-2.417164e-01	2.465737e-01	-5.351915e-01	-5.093122e-01	-2.587936e-02
6.600000e-02	-2.440326e-01	2.492031e-01	-5.381869e-01	-5.131260e-01	-2.506089e-02
6.700000e-02	-2.463333e-01	2.517637e-01	-5.414556e-01	-5.170611e-01	-2.439451e-02
6.800000e-02	-2.486469e-01	2.542785e-01	-5.450716e-01	-5.211827e-01	-2.388894e-02
6.900000e-02	-2.509659e-01	2.567467e-01	-5.490388e-01	-5.254853e-01	-2.355355e-02
7.000000e-02	-2.532561e-01	2.591284e-01	-5.532479e-01	-5.298801e-01	-2.336780e-02
7.100000e-02	-2.554896e-01	2.614042e-01	-5.576420e-01	-5.343106e-01	-2.333144e-02
7.200000e-02	-2.576942e-01	2.635999e-01	-5.621735e-01	-5.387809e-01	-2.339258e-02
7.300000e-02	-2.599864e-01	2.658404e-01	-5.671266e-01	-5.435497e-01	-2.357687e-02
7.400000e-02	-2.624942e-01	2.682138e-01	-5.728182e-01	-5.489033e-01	-2.391493e-02
7.500000e-02	-2.652671e-01	2.707966e-01	-5.793638e-01	-5.549490e-01	-2.441483e-02
7.600000e-02	-2.683107e-01	2.735667e-01	-5.867904e-01	-5.617059e-01	-2.508451e-02
7.700000e-02	-2.714901e-01	2.764382e-01	-5.947549e-01	-5.688675e-01	-2.588741e-02
7.800000e-02	-2.749129e-01	2.794993e-01	-6.034094e-01	-5.766176e-01	-2.679185e-02
7.900000e-02	-2.786985e-01	2.829142e-01	-6.128956e-01	-5.851463e-01	-2.774923e-02
8.000000e-02	-2.826928e-01	2.865350e-01	-6.228453e-01	-5.941154e-01	-2.872992e-02
8.100000e-02	-2.866197e-01	2.901076e-01	-6.327333e-01	-6.029863e-01	-2.974700e-02
8.200000e-02	-2.903241e-01	2.934723e-01	-6.422871e-01	-6.114677e-01	-3.081943e-02
8.300000e-02	-2.939761e-01	2.968256e-01	-6.518161e-01	-6.198842e-01	-3.193196e-02
8.400000e-02	-2.972496e-01	2.998095e-01	-6.608702e-01	-6.276847e-01	-3.318553e-02
8.500000e-02	-2.999793e-01	3.022508e-01	-6.692592e-01	-6.346088e-01	-3.465033e-02
8.600000e-02	-3.020201e-01	3.039544e-01	-6.768251e-01	-6.404327e-01	-3.639248e-02
8.700000e-02	-3.032145e-01	3.047540e-01	-6.832562e-01	-6.448426e-01	-3.841355e-02
8.800000e-02	-3.037354e-01	3.048443e-01	-6.886945e-01	-6.480827e-01	-4.061182e-02
8.900000e-02	-3.036028e-01	3.042553e-01	-6.930310e-01	-6.501183e-01	-4.291274e-02
9.000000e-02	-3.033699e-01	3.035437e-01	-6.971653e-01	-6.519526e-01	-4.521271e-02
9.100000e-02	-3.035072e-01	3.032398e-01	-7.016278e-01	-6.543211e-01	-4.730675e-02
9.200000e-02	-3.044549e-01	3.038004e-01	-7.071750e-01	-6.580424e-01	-4.913259e-02
9.300000e-02	-3.061769e-01	3.051868e-01	-7.138540e-01	-6.631039e-01	-5.075008e-02
9.400000e-02	-3.085173e-01	3.071833e-01	-7.216038e-01	-6.693192e-01	-5.228465e-02
9.500000e-02	-3.111459e-01	3.094071e-01	-7.299743e-01	-6.761331e-01	-5.384127e-02
9.600000e-02	-3.138699e-01	3.116442e-01	-7.386001e-01	-6.831700e-01	-5.543010e-02
9.700000e-02	-3.166062e-01	3.138433e-01	-7.472607e-01	-6.902365e-01	-5.702412e-02
9.800000e-02	-3.194280e-01	3.161199e-01	-7.559386e-01	-6.973973e-01	-5.854125e-02
9.900000e-02	-3.224423e-01	3.186315e-01	-7.647840e-01	-7.048343e-01	-5.994969e-02
1.000000e-01	-3.258799e-01	3.216634e-01	-7.741281e-01	-7.129440e-01	-6.118413e-02
1.010000e-01	-3.297219e-01	3.252040e-01	-7.840164e-01	-7.217301e-01	-6.228632e-02
1.020000e-01	-3.338218e-01	3.290873e-01	-7.942231e-01	-7.309334e-01	-6.328974e-02
1.030000e-01	-3.380431e-01	3.331321e-01	-8.046302e-01	-7.403582e-01	-6.427201e-02
1.040000e-01	-3.422575e-01	3.371778e-01	-8.151048e-01	-7.498099e-01	-6.529488e-02
1.050000e-01	-3.463787e-01	3.410939e-01	-8.255520e-01	-7.591547e-01	-6.639728e-02
1.060000e-01	-3.503560e-01	3.448273e-01	-8.358955e-01	-7.683038e-01	-6.759168e-02
1.070000e-01	-3.540700e-01	3.482474e-01	-8.459414e-01	-7.770407e-01	-6.890074e-02
1.080000e-01	-3.574036e-01	3.512517e-01	-8.554518e-01	-7.851295e-01	-7.032227e-02
1.090000e-01	-3.603406e-01	3.538274e-01	-8.643524e-01	-7.925168e-01	-7.183561e-02
1.100000e-01	-3.627967e-01	3.558924e-01	-8.724995e-01	-7.990464e-01	-7.345310e-02
1.110000e-01	-3.650038e-01	3.576836e-01	-8.802076e-01	-8.051076e-01	-7.509996e-02
1.120000e-01	-3.670052e-01	3.592509e-01	-8.875553e-01	-8.107829e-01	-7.677242e-02
1.130000e-01	-3.690217e-01	3.608142e-01	-8.948582e-01	-8.164508e-01	-7.840738e-02
1.140000e-01	-3.710445e-01	3.623650e-01	-9.021177e-01	-8.221033e-01	-8.001435e-02
1.150000e-01	-3.732287e-01	3.640637e-01	-9.095640e-01	-8.280107e-01	-8.155330e-02
1.160000e-01	-3.755778e-01	3.659164e-01	-9.172203e-01	-8.341879e-01	-8.303236e-02
1.170000e-01	-3.781844e-01	3.680224e-01	-9.252194e-01	-8.407941e-01	-8.442525e-02
1.180000e-01	-3.810037e-01	3.703342e-01	-9.334970e-01	-8.477522e-01	-8.574480e-02
1.190000e-01	-3.840244e-01	3.728423e-01	-9.420191e-01	-8.550339e-01	-8.698516e-02
1.200000e-01	-3.871921e-01	3.754920e-01	-9.507250e-01	-8.625546e-01	-8.817040e-02
1.210000e-01	-3.905445e-01	3.783202e-01	-9.596713e-01	-8.703801e-01	-8.929117e-02
1.220000e-01	-3.940403e-01	3.812773e-01	-9.688287e-01	-8.784547e-01	-9.037402e-02
1.230000e-01	-3.977371e-01	3.844267e-01	-9.782739e-01	-8.868741e-01	-9.139989e-02
1.240000e-01	-4.015799e-01	3.877192e-01	-9.879167e-01	-8.955383e-01	-9.237844e-02
1.250000e-01	-4.056242e-01	3.912265e-01	-9.977921e-01	-9.045203e-01	-9.327186e-02
1.260000e-01	-4.098686e-01	3.949556e-01	-1.007919e+00	-9.138281e-01	-9.409083e-02
1.270000e-01	-4.143979e-01	3.990011e-01	-1.018411e+00	-9.236033e-01	-9.480750e-02
1.280000e-01	-4.192576e-01	4.034134e-01	-1.029355e+00	-9.339349e-01	-9.541978e-02
1.290000e-01	-4.243968e-01	4.081384e-01	-1.040677e+00	-9.447355e-01	-9.594188e-02
1.300000e-01	-4.298233e-01	4.131925e-01	-1.052389e+00	-9.560179e-01	-9.637125e-02
1.310000e-01	-4.352089e-01	4.182216e-01	-1.064018e+00	-9.672178e-01	-9.680001e-02
1.320000e-01	-4.400857e-01	4.227169e-01	-1.074895e+00	-9.775334e-01	-9.736196e-02
1.330000e-01	-4.441549e-01	4.263527e-01	-1.084570e+00	-9.864397e-01	-9.812982e-02
1.340000e-01	-4.476677e-01	4.294177e-01	-1.093375e+00	-9.943553e-01	-9.901993e-02
1.350000e-01	-4.508505e-01	4.321783e-01	-1.101564e+00	-1.001632e+00	-9.993153e-02
1.360000e-01	-4.540133e-01	4.349779e-01	-1.109551e+00	-1.008789e+00	-1.007620e-01
1.370000e-01	-4.573719e-01	4.380405e-01	-1.117649e+00	-1.016196e+00	-1.014524e-01
1.380000e-01	-4.609828e-01	4.414058e-01	-1.125983e+00	-1.023974e+00	-1.020087e-01
1.390000e-01	-4.647821e-01	4.449686e-01	-1.134520e+00	-1.032042e+00	-1.024778e-01
1.400000e-01	-4.686296e-01	4.485517e-01	-1.143121e+00	-1.040190e+00	-1.029307e-01
1.410000e-01	-4.724042e-01	4.520126e-01	-1.151632e+00	-1.048220e+00	-1.034119e-01
1.420000e-01	-4.760378e-01	4.552839e-01	-1.159978e+00	-1.056027e+00	-1.039511e-01
1.430000e-01	-4.795717e-01	4.584177e-01	-1.168185e+00	-1.063664e+00	-1.045209e-01
1.440000e-01	-4.830210e-01	4.614464e-01	-1.176256e+00	-1.071149e+00	-1.051072e-01
1.450000e-01	-4.864196e-01	4.644129e-01	-1.184207e+00	-1.078523e+00	-1.056839e-01
1.460000e-01	-4.898063e-01	4.673747e-01	-1.192099e+00	-1.085856e+00	-1.062432e-01
1.470000e-01	-4.932037e-01	4.703616e-01	-1.199941e+00	-1.093174e+00	-1.067669e-01
1.480000e-01	-4.965959e-01	4.733555e-01	-1.207724e+00	-1.100458e+00	-1.072663e-01
1.490000e-01	-4.999743e-01	4.763444e-01	-1.215431e+00	-1.107690e+00	-1.077410e-01
1.500000e-01	-5.033267e-01	4.793154e-01	-1.223072e+00	-1.114863e+00	-1.082093e-01
1.510000e-01	-5.066817e-01	4.822996e-01	-1.230671e+00	-1.122017e+00	-1.086536e-01
1.520000e-01	-5.100035e-01	4.852525e-01	-1.238193e+00	-1.129100e+00	-1.090929e-01
1.530000e-01	-5.132889e-01	4.881663e-01	-1.245615e+00	-1.136096e+00	-1.095184e-01
1.540000e-01	-5.165633e-01	4.910657e-01	-1.252998e+00	-1.143062e+00	-1.099358e-01
1.550000e-01	-5.198277e-01	4.939552e-01	-1.260327e+00	-1.149991e+00	-1.103358e-01
1.560000e-01	-5.230980e-01	4.968517e-01	-1.267644e+00	-1.156920e+00	-1.107240e-01
1.570000e-01	-5.264091e-01	4.997980e-01	-1.274968e+00	-1.163893e+00	-1.110748e-01
1.580000e-01	-5.297675e-01	5.027992e-01	-1.282334e+00	-1.170934e+00	-1.113994e-01
1.590000e-01	-5.331664e-01	5.058501e-01	-1.289712e+00	-1.178023e+00	-1.116896e-01
1.600000e-01	-5.365857e-01	5.089246e-01	-1.297104e+00	-1.185137e+00	-1.119661e-01
1.610000e-01	-5.400052e-01	5.120014e-01	-1.304465e+00	-1.192238e+00	-1.122275e-01
1.620000e-01	-5.433945e-01	5.150364e-01	-1.311790e+00	-1.199289e+00	-1.125004e-01
1.630000e-01	-5.467441e-01	5.180252e-01	-1.319031e+00	-1.206260e+00	-1.127714e-01
1.640000e-01	-5.500444e-01	5.209486e-01	-1.326200e+00	-1.213144e+00	-1.130555e-01
1.650000e-01	-5.533165e-01	5.238375e-01	-1.333303e+00	-1.219968e+00	-1.133348e-01
1.660000e-01	-5.565548e-01	5.266846e-01	-1.340347e+00	-1.226728e+00	-1.136189e-01
1.670000e-01	-5.597506e-01	5.294867e-01	-1.347305e+00	-1.233403e+00	-1.139020e-01
1.680000e-01	-5.628588e-01	5.321933e-01	-1.354130e+00	-1.239924e+00	-1.142064e-01
1.690000e-01	-5.659087e-01	5.348490e-01	-1.360828e+00	-1.246323e+00	-1.145051e-01
1.700000e-01	-5.688888e-01	5.374368e-01	-1.367406e+00	-1.252592e+00	-1.148141e-01
1.710000e-01	-5.718142e-01	5.399756e-01	-1.373858e+00	-1.258743e+00	-1.151147e-01
1.720000e-01	-5.746764e-01	5.424499e-01	-1.380199e+00	-1.264776e+00	-1.154230e-01
1.730000e-01	-5.775228e-01	5.449122e-01	-1.386472e+00	-1.270759e+00	-1.157131e-01
1.740000e-01	-5.803252e-01	5.473297e-01	-1.392661e+00	-1.276656e+00	-1.160052e-01
1.750000e-01	-5.831271e-01	5.497547e-01	-1.398796e+00	-1.282525e+00	-1.162710e-01
1.760000e-01	-5.859169e-01	5.521737e-01	-1.404895e+00	-1.288364e+00	-1.165304e-01
1.770000e-01	-5.887392e-01	5.546369e-01	-1.410996e+00	-1.294237e+00	-1.167586e-01
1.780000e-01	-5.915400e-01	5.570773e-01	-1.417051e+00	-1.300066e+00	-1.169855e-01
1.790000e-01	-5.943423e-01	5.595208e-01	-1.423071e+00	-1.305878e+00	-1.171933e-01
1.800000e-01	-5.970824e-01	5.618931e-01	-1.428998e+00	-1.311582e+00	-1.174168e-01
1.810000e-01	-5.997772e-01	5.642194e-01	-1.434828e+00	-1.317191e+00	-1.176368e-01
1.820000e-01	-6.023862e-01	5.664523e-01	-1.440536e+00	-1.322654e+00	-1.178818e-01
1.830000e-01	-6.049652e-01	5.686630e-01	-1.446160e+00	-1.328045e+00	-1.181150e-01
1.840000e-01	-6.074959e-01	5.708302e-01	-1.451690e+00	-1.333341e+00	-1.183492e-01
1.850000e-01	-6.100335e-01	5.730226e-01	-1.457170e+00	-1.338619e+00	-1.185515e-01
1.860000e-01	-6.125504e-01	5.752030e-01	-1.462593e+00	-1.343847e+00	-1.187463e-01
1.870000e-01	-6.150648e-01	5.773945e-01	-1.467966e+00	-1.349048e+00	-1.189180e-01
1.880000e-01	-6.175189e-01	5.795252e-01	-1.473237e+00	-1.354137e+00	-1.190996e-01
1.890000e-01	-6.199154e-01	5.816042e-01	-1.478392e+00	-1.359111e+00	-1.192804e-01
1.900000e-01	-6.222316e-01	5.835930e-01	-1.483425e+00	-1.363944e+00	-1.194812e-01
1.910000e-01	-6.245081e-01	5.855416e-01	-1.488364e+00	-1.368690e+00	-1.196741e-01
1.920000e-01	-6.267226e-01	5.874186e-01	-1.493195e+00	-1.373320e+00	-1.198749e-01
1.930000e-01	-6.289179e-01	5.892840e-01	-1.497949e+00	-1.377893e+00	-1.200568e-01
1.940000e-01	-6.310615e-01	5.910943e-01	-1.502614e+00	-1.382369e+00	-1.202456e-01
1.950000e-01	-6.332117e-01	5.929279e-01	-1.507240e+00	-1.386832e+00	-1.204081e-01
1.960000e-01	-6.353452e-01	5.947509e-01	-1.511821e+00	-1.391256e+00	-1.205654e-01
1.970000e-01	-6.374756e-01	5.965883e-01	-1.516348e+00	-1.395649e+00	-1.206983e-01
1.980000e-01	-6.395763e-01	5.984014e-01	-1.520809e+00	-1.399981e+00	-1.208281e-01
1.990000e-01	-6.416761e-01	6.002328e-01	-1.525218e+00	-1.404285e+00	-1.209327e-01
2.000000e-01	-6.437502e-01	6.020421e-01	-1.529568e+00	-1.408534e+00	-1.210340e-01
2.010000e-01	-6.458250e-01	6.038708e-01	-1.533859e+00	-1.412755e+00	-1.211048e-01
2.020000e-01	-6.478769e-01	6.056765e-01	-1.538107e+00	-1.416931e+00	-1.211768e-01
2.030000e-01	-6.499358e-01	6.075034e-01	-1.542330e+00	-1.421101e+00	-1.212293e-01
2.040000e-01	-6.519666e-01	6.092994e-01	-1.546499e+00	-1.425216e+00	-1.212828e-01
2.050000e-01	-6.539988e-01	6.111082e-01	-1.550636e+00	-1.429317e+00	-1.213190e-01
2.060000e-01	-6.559837e-01	6.128619e-01	-1.554703e+00	-1.433335e+00	-1.213676e-01
2.070000e-01	-6.579556e-01	6.146125e-01	-1.558721e+00	-1.437316e+00	-1.214049e-01
2.080000e-01	-6.598708e-01	6.163025e-01	-1.562641e+00	-1.441191e+00	-1.214495e-01
2.090000e-01	-6.617683e-01	6.179863e-01	-1.566495e+00	-1.445016e+00	-1.214790e-01
2.100000e-01	-6.636289e-01	6.196299e-01	-1.570293e+00	-1.448775e+00	-1.215176e-01
2.110000e-01	-6.654772e-01	6.212723e-01	-1.574049e+00	-1.452502e+00	-1.215473e-01
2.120000e-01	-6.672760e-01	6.228626e-01	-1.577722e+00	-1.456137e+00	-1.215849e-01
2.130000e-01	-6.690466e-01	6.244352e-01	-1.581326e+00	-1.459710e+00	-1.216166e-01
2.140000e-01	-6.707754e-01	6.259624e-01	-1.584854e+00	-1.463202e+00	-1.216517e-01
2.150000e-01	-6.724899e-01	6.274856e-01	-1.588330e+00	-1.466655e+00	-1.216752e-01
2.160000e-01	-6.741589e-01	6.289610e-01	-1.591733e+00	-1.470026e+00	-1.217076e-01
2.170000e-01	-6.758069e-01	6.304259e-01	-1.595081e+00	-1.473347e+00	-1.217336e-01
2.180000e-01	-6.774119e-01	6.318437e-01	-1.598357e+00	-1.476591e+00	-1.217669e-01
2.190000e-01	-6.789967e-01	6.332505e-01	-1.601580e+00	-1.479787e+00	-1.217936e-01
2.200000e-01	-6.805420e-01	6.346152e-01	-1.604745e+00	-1.482914e+00	-1.218304e-01
2.210000e-01	-6.820668e-01	6.359695e-01	-1.607847e+00	-1.485990e+00	-1.218567e-01
2.220000e-01	-6.835521e-01	6.372804e-01	-1.610886e+00	-1.488995e+00	-1.218911e-01
2.230000e-01	-6.850075e-01	6.385717e-01	-1.613847e+00	-1.491931e+00	-1.219158e-01
2.240000e-01	-6.864150e-01	6.398127e-01	-1.616724e+00	-1.494777e+00	-1.219471e-01
2.250000e-01	-6.878108e-01	6.410527e-01	-1.619571e+00	-1.497596e+00	-1.219747e-01
2.260000e-01	-6.891694e-01	6.422531e-01	-1.622355e+00	-1.500347e+00	-1.220079e-01
2.270000e-01	-6.905103e-01	6.434457e-01	-1.625092e+00	-1.503056e+00	-1.220356e-01
2.280000e-01	-6.918120e-01	6.445957e-01	-1.627766e+00	-1.505695e+00	-1.220711e-01
2.290000e-01	-6.930987e-01	6.457401e-01	-1.630387e+00	-1.508292e+00	-1.220950e-01
2.300000e-01	-6.943470e-01	6.468425e-01	-1.632949e+00	-1.510821e+00	-1.221274e-01
2.310000e-01	-6.955802e-01	6.479394e-01	-1.635464e+00	-1.513312e+00	-1.221519e-01
2.320000e-01	-6.967817e-01	6.490021e-01	-1.637924e+00	-1.515744e+00	-1.221801e-01
2.330000e-01	-6.979690e-01	6.500584e-01	-1.640337e+00	-1.518137e+00	-1.221994e-01
2.340000e-01	-6.991270e-01	6.510831e-01	-1.642702e+00	-1.520478e+00	-1.222240e-01
2.350000e-01	-7.002728e-01	6.521045e-01	-1.645028e+00	-1.522787e+00	-1.222412e-01
2.360000e-01	-7.013969e-01	6.531020e-01	-1.647321e+00	-1.525057e+00	-1.222637e-01
2.370000e-01	-7.025076e-01	6.540945e-01	-1.649574e+00	-1.527295e+00	-1.222796e-01
2.380000e-01	-7.035816e-01	6.550481e-01	-1.651762e+00	-1.529463e+00	-1.222996e-01
2.390000e-01	-7.046406e-01	6.559935e-01	-1.653908e+00	-1.531595e+00	-1.223133e-01
2.400000e-01	-7.056681e-01	6.569042e-01	-1.655999e+00	-1.533667e+00	-1.223313e-01
2.410000e-01	-7.066869e-01	6.578147e-01	-1.658063e+00	-1.535719e+00	-1.223448e-01
2.420000e-01	-7.076773e-01	6.586935e-01	-1.660081e+00	-1.537718e+00	-1.223631e-01
2.430000e-01	-7.086587e-01	6.595721e-01	-1.662066e+00	-1.539692e+00	-1.223741e-01
2.440000e-01	-7.096064e-01	6.604151e-01	-1.663995e+00	-1.541604e+00	-1.223913e-01
2.450000e-01	-7.105547e-01	6.612661e-01	-1.665912e+00	-1.543511e+00	-1.224012e-01
2.460000e-01	-7.114712e-01	6.620814e-01	-1.667768e+00	-1.545355e+00	-1.224129e-01
2.470000e-01	-7.123760e-01	6.628923e-01	-1.669594e+00	-1.547173e+00	-1.224208e-01
2.480000e-01	-7.132564e-01	6.636757e-01	-1.671381e+00	-1.548947e+00	-1.224339e-01
2.490000e-01	-7.141314e-01	6.644632e-01	-1.673138e+00	-1.550700e+00	-1.224374e-01
2.500000e-01	-7.149725e-01	6.652125e-01	-1.674847e+00	-1.552396e+00	-1.224509e-01
2.510000e-01	-7.158116e-01	6.659662e-01	-1.676535e+00	-1.554079e+00	-1.224557e-01
2.520000e-01	-7.166174e-01	6.666823e-01	-1.678170e+00	-1.555703e+00	-1.224677e-01
2.530000e-01	-7.174149e-01	6.673972e-01	-1.679777e+00	-1.557304e+00	-1.224737e-01
2.540000e-01	-7.181846e-01	6.680811e-01	-1.681342e+00	-1.558855e+00	-1.224862e-01
2.550000e-01	-7.189549e-01	6.687742e-01	-1.682880e+00	-1.560395e+00	-1.224850e-01
2.560000e-01	-7.197004e-01	6.694400e-01	-1.684389e+00	-1.561895e+00	-1.224943e-01
2.570000e-01	-7.204519e-01	6.701178e-01	-1.685898e+00	-1.563401e+00	-1.224971e-01
2.580000e-01	-7.211642e-01	6.707515e-01	-1.687334e+00	-1.564831e+00	-1.225030e-01
2.590000e-01	-7.218767e-01	6.713919e-01	-1.688757e+00	-1.566255e+00	-1.225020e-01
2.600000e-01	-7.225587e-01	6.719986e-01	-1.690137e+00	-1.567627e+00	-1.225100e-01
2.610000e-01	-7.232420e-01	6.726134e-01	-1.691503e+00	-1.568994e+00	-1.225096e-01
2.620000e-01	-7.238917e-01	6.731913e-01	-1.692826e+00	-1.570304e+00	-1.225211e-01
2.630000e-01	-7.245402e-01	6.737731e-01	-1.694137e+00	-1.571609e+00	-1.225282e-01
2.640000e-01	-7.251598e-01	6.743253e-01	-1.695394e+00	-1.572857e+00	-1.225371e-01
2.650000e-01	-7.257883e-01	6.748925e-01	-1.696649e+00	-1.574113e+00	-1.225363e-01
2.660000e-01	-7.263867e-01	6.754263e-01	-1.697862e+00	-1.575318e+00	-1.225441e-01
2.670000e-01	-7.269833e-01	6.759647e-01	-1.699053e+00	-1.576510e+00	-1.225432e-01
2.680000e-01	-7.275592e-01	6.764805e-01	-1.700219e+00	-1.577669e+00	-1.225502e-01
2.690000e-01	-7.281396e-01	6.770049e-01	-1.701380e+00	-1.578830e+00	-1.225504e-01
2.700000e-01	-7.286875e-01	6.774947e-01	-1.702481e+00	-1.579928e+00	-1.225531e-01
2.710000e-01	-7.292271e-01	6.779813e-01	-1.703560e+00	-1.581007e+00	-1.225531e-01
2.720000e-01	-7.297459e-01	6.784437e-01	-1.704621e+00	-1.582056e+00	-1.225646e-01
2.730000e-01	-7.302731e-01	6.789211e-01	-1.705670e+00	-1.583108e+00	-1.225618e-01
2.740000e-01	-7.307734e-01	6.793694e-01	-1.706681e+00	-1.584114e+00	-1.225672e-01
2.750000e-01	-7.312870e-01	6.798337e-01	-1.707707e+00	-1.585140e+00	-1.225665e-01
2.760000e-01	-7.317723e-01	6.802677e-01	-1.708688e+00	-1.586116e+00	-1.225715e-01
2.770000e-01	-7.322593e-01	6.807079e-01	-1.709659e+00	-1.587089e+00	-1.225702e-01
2.780000e-01	-7.327156e-01	6.811166e-01	-1.710583e+00	-1.588007e+00	-1.225758e-01
2.790000e-01	-7.331724e-01	6.815303e-01	-1.711483e+00	-1.588914e+00	-1.225691e-01
2.800000e-01	-7.336043e-01	6.819171e-01	-1.712356e+00	-1.589782e+00	-1.225737e-01
2.810000e-01	-7.340424e-01	6.823136e-01	-1.713229e+00	-1.590657e+00	-1.225721e-01
2.820000e-01	-7.344555e-01	6.826836e-01	-1.714060e+00	-1.591485e+00	-1.225745e-01
2.830000e-01	-7.348803e-01	6.830692e-01	-1.714902e+00	-1.592331e+00	-1.225705e-01
2.840000e-01	-7.352805e-01	6.834285e-01	-1.715717e+00	-1.593139e+00	-1.225779e-01
2.850000e-01	-7.356902e-01	6.838012e-01	-1.716525e+00	-1.593953e+00	-1.225725e-01
2.860000e-01	-7.360651e-01	6.841380e-01	-1.717282e+00	-1.594706e+00	-1.225759e-01
2.870000e-01	-7.364538e-01	6.844916e-01	-1.718055e+00	-1.595481e+00	-1.225738e-01
2.880000e-01	-7.368137e-01	6.848149e-01	-1.718775e+00	-1.596201e+00	-1.225737e-01
2.890000e-01	-7.371827e-01	6.851498e-01	-1.719503e+00	-1.596934e+00	-1.225691e-01
2.900000e-01	-7.375184e-01	6.854506e-01	-1.720193e+00	-1.597615e+00	-1.225780e-01
2.910000e-01	-7.378667e-01	6.857682e-01	-1.720876e+00	-1.598305e+00	-1.225712e-01
2.920000e-01	-7.381992e-01	6.860682e-01	-1.721538e+00	-1.598968e+00	-1.225696e-01
2.930000e-01	-7.385526e-01	6.863918e-01	-1.722233e+00	-1.599669e+00	-1.225642e-01
2.940000e-01	-7.388682e-01	6.866754e-01	-1.722876e+00	-1.600306e+00	-1.225700e-01
2.950000e-01	-7.391921e-01	6.869712e-01	-1.723516e+00	-1.600950e+00	-1.225657e-01
2.960000e-01	-7.394888e-01	6.872374e-01	-1.724122e+00	-1.601550e+00	-1.225723e-01
2.970000e-01	-7.397959e-01	6.875191e-01	-1.724722e+00	-1.602157e+00	-1.225650e-01
2.980000e-01	-7.400734e-01	6.877694e-01	-1.725281e+00	-1.602714e+00	-1.225668e-01
2.990000e-01	-7.403688e-01	6.880404e-01	-1.725862e+00	-1.603300e+00	-1.225621e-01
3.000000e-01	-7.406417e-01	6.882868e-01	-1.726407e+00	-1.603845e+00	-1.225618e-01
3.010000e-01	-7.409300e-01	6.885512e-01	-1.726971e+00	-1.604415e+00	-1.225555e-01
3.020000e-01	-7.411772e-01	6.887705e-01	-1.727487e+00	-1.604921e+00	-1.225665e-01
3.030000e-01	-7.414335e-01	6.890044e-01	-1.727997e+00	-1.605432e+00	-1.225648e-01
3.040000e-01	-7.416766e-01	6.892236e-01	-1.728491e+00	-1.605922e+00	-1.225688e-01
3.050000e-01	-7.419417e-01	6.894672e-01	-1.729013e+00	-1.606448e+00	-1.225648e-01
3.060000e-01	-7.421697e-01	6.896713e-01	-1.729469e+00	-1.606904e+00	-1.225647e-01
3.070000e-01	-7.424144e-01	6.898972e-01	-1.729944e+00	-1.607386e+00	-1.225575e-01
3.080000e-01	-7.426384e-01	6.901004e-01	-1.730397e+00	-1.607837e+00	-1.225602e-01
3.090000e-01	-7.428744e-01	6.903190e-01	-1.730851e+00	-1.608300e+00	-1.225512e-01
3.100000e-01	-7.430774e-01	6.905003e-01	-1.731266e+00	-1.608710e+00	-1.225555e-01
3.110000e-01	-7.432907e-01	6.906945e-01	-1.731695e+00	-1.609138e+00	-1.225566e-01
3.120000e-01	-7.434778e-01	6.908603e-01	-1.732079e+00	-1.609517e+00	-1.225618e-01
3.130000e-01	-7.436931e-01	6.910600e-01	-1.732496e+00	-1.609941e+00	-1.225547e-01
3.140000e-01	-7.438826e-01	6.912308e-01	-1.732883e+00	-1.610324e+00	-1.225589e-01
3.150000e-01	-7.440880e-01	6.914221e-01	-1.733278e+00	-1.610727e+00	-1.225511e-01
3.160000e-01	-7.442647e-01	6.915809e-01	-1.733635e+00	-1.611082e+00	-1.225525e-01
3.170000e-01	-7.444601e-01	6.917629e-01	-1.734016e+00	-1.611468e+00	-1.225481e-01
3.180000e-01	-7.446250e-01	6.919108e-01	-1.734349e+00	-1.611799e+00	-1.225493e-01
3.190000e-01	-7.448082e-01	6.920805e-01	-1.734704e+00	-1.612160e+00	-1.225436e-01
3.200000e-01	-7.449647e-01	6.922184e-01	-1.735030e+00	-1.612480e+00	-1.225506e-01
3.210000e-01	-7.451335e-01	6.923753e-01	-1.735355e+00	-1.612811e+00	-1.225440e-01
3.220000e-01	-7.452817e-01	6.925075e-01	-1.735654e+00	-1.613109e+00	-1.225454e-01
3.230000e-01	-7.454564e-01	6.926709e-01	-1.735991e+00	-1.613452e+00	-1.225390e-01
3.240000e-01	-7.456118e-01	6.928116e-01	-1.736297e+00	-1.613760e+00	-1.225366e-01
3.250000e-01	-7.457790e-01	6.929703e-01	-1.736614e+00	-1.614086e+00	-1.225282e-01
3.260000e-01	-7.459095e-01	6.930860e-01	-1.736892e+00	-1.614355e+00	-1.225363e-01
3.270000e-01	-7.460538e-01	6.932201e-01	-1.737169e+00	-1.614638e+00	-1.225308e-01
3.280000e-01	-7.461795e-01	6.933306e-01	-1.737430e+00	-1.614895e+00	-1.225357e-01
3.290000e-01	-7.463220e-01	6.934620e-01	-1.737715e+00	-1.615179e+00	-1.225354e-01
3.300000e-01	-7.464361e-01	6.935630e-01	-1.737949e+00	-1.615411e+00	-1.225385e-01
3.310000e-01	-7.465716e-01	6.936906e-01	-1.738208e+00	-1.615676e+00	-1.225324e-01
3.320000e-01	-7.466977e-01	6.938047e-01	-1.738466e+00	-1.615931e+00	-1.225356e-01
3.330000e-01	-7.468298e-01	6.939286e-01	-1.738713e+00	-1.616186e+00	-1.225269e-01
3.340000e-01	-7.469369e-01	6.940220e-01	-1.738939e+00	-1.616406e+00	-1.225326e-01
3.350000e-01	-7.470640e-01	6.941417e-01	-1.739189e+00	-1.616658e+00	-1.225306e-01
3.360000e-01	-7.471699e-01	6.942367e-01	-1.739405e+00	-1.616872e+00	-1.225327e-01
3.370000e-01	-7.472922e-01	6.943518e-01	-1.739642e+00	-1.617113e+00	-1.225291e-01
3.380000e-01	-7.473912e-01	6.944390e-01	-1.739853e+00	-1.617317e+00	-1.225351e-01
3.390000e-01	-7.475075e-01	6.945483e-01	-1.740070e+00	-1.617543e+00	-1.225277e-01
3.400000e-01	-7.475941e-01	6.946233e-01	-1.740257e+00	-1.617723e+00	-1.225345e-01
3.410000e-01	-7.476991e-01	6.947207e-01	-1.740470e+00	-1.617934e+00	-1.225358e-01
3.420000e-01	-7.477803e-01	6.947927e-01	-1.740636e+00	-1.618098e+00	-1.225376e-01
3.430000e-01	-7.478834e-01	6.948912e-01	-1.740833e+00	-1.618300e+00	-1.225331e-01
3.440000e-01	-7.479674e-01	6.949654e-01	-1.741013e+00	-1.618474e+00	-1.225391e-01
3.450000e-01	-7.480736e-01	6.950668e-01	-1.741209e+00	-1.618678e+00	-1.225311e-01
3.460000e-01	-7.481531e-01	6.951370e-01	-1.741370e+00	-1.618838e+00	-1.225321e-01
3.470000e-01	-7.482504e-01	6.952289e-01	-1.741559e+00	-1.619030e+00	-1.225293e-01
3.480000e-01	-7.483223e-01	6.952928e-01	-1.741702e+00	-1.619173e+00	-1.225287e-01
3.490000e-01	-7.484171e-01	6.953834e-01	-1.741878e+00	-1.619356e+00	-1.225219e-01
3.500000e-01	-7.484774e-01	6.954338e-01	-1.742019e+00	-1.619487e+00	-1.225323e-01
3.510000e-01	-7.485564e-01	6.955082e-01	-1.742174e+00	-1.619644e+00	-1.225308e-01
3.520000e-01	-7.486184e-01	6.955634e-01	-1.742309e+00	-1.619773e+00	-1.225362e-01
3.530000e-01	-7.487063e-01	6.956482e-01	-1.742476e+00	-1.619944e+00	-1.225315e-01
3.540000e-01	-7.487653e-01	6.956994e-01	-1.742595e+00	-1.620063e+00	-1.225322e-01
3.550000e-01	-7.488436e-01	6.957743e-01	-1.742739e+00	-1.620213e+00	-1.225259e-01
3.560000e-01	-7.489010e-01	6.958250e-01	-1.742861e+00	-1.620332e+00	-1.225296e-01
3.570000e-01	-7.489776e-01	6.958997e-01	-1.743000e+00	-1.620478e+00	-1.225225e-01
3.580000e-01	-7.490295e-01	6.959440e-01	-1.743110e+00	-1.620585e+00	-1.225256e-01
3.590000e-01	-7.491020e-01	6.960137e-01	-1.743248e+00	-1.620726e+00	-1.225222e-01
3.600000e-01	-7.491458e-01	6.960503e-01	-1.743345e+00	-1.620818e+00	-1.225266e-01