# Forces     
# CofR       : (0.000000e+00 0.000000e+00 0.000000e+00)
# Time       forces(pressure viscous porous) moment(pressure viscous porous)
1.000000e-03	((6.588182e+00 -7.871600e+00 1.077633e-02) (2.914113e-02 -7.015183e-04 2.406366e-05) (0.000000e+00 0.000000e+00 0.000000e+00)) ((-2.135989e-02 -2.424873e-02 -5.033327e+00) (-7.960196e-06 -1.252373e-05 5.813090e-04) (0.000000e+00 0.000000e+00 0.000000e+00))
2.000000e-03	((1.727350e+01 -2.238196e+01 5.523405e-02) (2.423224e-02 4.857165e-03 1.813326e-04) (0.000000e+00 0.000000e+00 0.000000e+00)) ((-2.589247e-01 -2.344888e-01 -1.339142e+01) (-4.338502e-05 -1.427226e-04 5.179483e-03) (0.000000e+00 0.000000e+00 0.000000e+00))
3.000000e-03	((2.147189e+01 -2.962082e+01 8.507908e-02) (2.252562e-02 1.073567e-02 4.184686e-04) (0.000000e+00 0.000000e+00 0.000000e+00)) ((-5.471481e-01 -4.360093e-01 -1.700370e+01) (-9.520881e-05 -3.458823e-04 9.934914e-03) (0.000000e+00 0.000000e+00 0.000000e+00))
4.000000e-03	((1.982529e+01 -2.933696e+01 9.351658e-02) (2.475998e-02 1.436234e-02 6.832709e-04) (0.000000e+00 0.000000e+00 0.000000e+00)) ((-7.177687e-01 -5.289041e-01 -1.613474e+01) (-1.224804e-04 -5.797162e-04 1.295740e-02) (0.000000e+00 0.000000e+00 0.000000e+00))
5.000000e-03	((1.537119e+01 -2.519528e+01 8.444592e-02) (2.786566e-02 1.560279e-02 8.790989e-04) (0.000000e+00 0.000000e+00 0.000000e+00)) ((-7.974879e-01 -5.313342e-01 -1.306824e+01) (-1.079666e-04 -7.628199e-04 1.426707e-02) (0.000000e+00 0.000000e+00 0.000000e+00))
6.000000e-03	((1.117125e+01 -2.097536e+01 6.210733e-02) (3.139828e-02 1.570862e-02 1.018685e-03) (0.000000e+00 0.000000e+00 0.000000e+00)) ((-7.539196e-01 -4.558639e-01 -1.017995e+01) (-9.513654e-05 -9.538012e-04 1.455873e-02) (0.000000e+00 0.000000e+00 0.000000e+00))
7.000000e-03	((8.630185e+00 -1.862874e+01 3.142488e-02) (3.407316e-02 1.547645e-02 1.100781e-03) (0.000000e+00 0.000000e+00 0.000000e+00)) ((-6.480707e-01 -3.468751e-01 -8.610684e+00) (-4.986347e-05 -1.011542e-03 1.455008e-02) (0.000000e+00 0.000000e+00 0.000000e+00))
8.000000e-03	((8.987615e+00 -1.988591e+01 6.863081e-03) (3.577726e-02 1.532867e-02 1.146851e-03) (0.000000e+00 0.000000e+00 0.000000e+00)) ((-5.532462e-01 -2.661618e-01 -9.290565e+00) (-1.450579e-05 -1.041157e-03 1.458496e-02) (0.000000e+00 0.000000e+00 0.000000e+00))
9.000000e-03	((1.140400e+01 -2.394718e+01 -7.065298e-03) (3.676977e-02 1.534379e-02 1.173208e-03) (0.000000e+00 0.000000e+00 0.000000e+00)) ((-5.330081e-01 -2.427807e-01 -1.161591e+01) (-6.776143e-07 -1.063036e-03 1.474068e-02) (0.000000e+00 0.000000e+00 0.000000e+00))
1.000000e-02	((1.480485e+01 -2.949729e+01 -9.190296e-03) (3.741564e-02 1.542355e-02 1.199121e-03) (0.000000e+00 0.000000e+00 0.000000e+00)) ((-5.979470e-01 -2.795180e-01 -1.473227e+01) (1.670259e-06 -1.084014e-03 1.496023e-02) (0.000000e+00 0.000000e+00 0.000000e+00))
1.100000e-02	((1.803645e+01 -3.502606e+01 -2.174841e-03) (3.803908e-02 1.559986e-02 1.231482e-03) (0.000000e+00 0.000000e+00 0.000000e+00)) ((-7.310990e-01 -3.596021e-01 -1.772456e+01) (2.175819e-06 -1.120424e-03 1.526482e-02) (0.000000e+00 0.000000e+00 0.000000e+00))
1.200000e-02	((2.086917e+01 -4.014138e+01 1.152159e-02) (3.875609e-02 1.583220e-02 1.279564e-03) (0.000000e+00 0.000000e+00 0.000000e+00)) ((-9.087525e-01 -4.693540e-01 -2.037243e+01) (-4.497186e-06 -1.162627e-03 1.560547e-02) (0.000000e+00 0.000000e+00 0.000000e+00))
1.300000e-02	((2.295331e+01 -4.434154e+01 2.511094e-02) (3.968390e-02 1.611232e-02 1.344934e-03) (0.000000e+00 0.000000e+00 0.000000e+00)) ((-1.097923e+00 -5.797314e-01 -2.242340e+01) (-1.697843e-05 -1.213066e-03 1.600462e-02) (0.000000e+00 0.000000e+00 0.000000e+00))
1.400000e-02	((2.454980e+01 -4.790254e+01 3.629357e-02) (4.070529e-02 1.640477e-02 1.425304e-03) (0.000000e+00 0.000000e+00 0.000000e+00)) ((-1.267510e+00 -6.759746e-01 -2.408003e+01) (-3.037123e-05 -1.274910e-03 1.641077e-02) (0.000000e+00 0.000000e+00 0.000000e+00))
1.500000e-02	((2.617019e+01 -5.154049e+01 4.246571e-02) (4.194246e-02 1.671616e-02 1.518525e-03) (0.000000e+00 0.000000e+00 0.000000e+00)) ((-1.418718e+00 -7.542900e-01 -2.577183e+01) (-4.069973e-05 -1.359699e-03 1.683914e-02) (0.000000e+00 0.000000e+00 0.000000e+00))
1.600000e-02	((2.806611e+01 -5.561532e+01 4.390890e-02) (4.325608e-02 1.702886e-02 1.615092e-03) (0.000000e+00 0.000000e+00 0.000000e+00)) ((-1.547700e+00 -8.160407e-01 -2.771564e+01) (-4.597376e-05 -1.447800e-03 1.726892e-02) (0.000000e+00 0.000000e+00 0.000000e+00))
1.700000e-02	((3.021043e+01 -6.019534e+01 3.960549e-02) (4.461531e-02 1.733288e-02 1.709182e-03) (0.000000e+00 0.000000e+00 0.000000e+00)) ((-1.666895e+00 -8.651597e-01 -2.994369e+01) (-4.718892e-05 -1.529286e-03 1.769258e-02) (0.000000e+00 0.000000e+00 0.000000e+00))
1.800000e-02	((3.259100e+01 -6.531414e+01 3.052122e-02) (4.589493e-02 1.759916e-02 1.796822e-03) (0.000000e+00 0.000000e+00 0.000000e+00)) ((-1.787790e+00 -9.102941e-01 -3.246075e+01) (-4.488228e-05 -1.595972e-03 1.808348e-02) (0.000000e+00 0.000000e+00 0.000000e+00))
1.900000e-02	((3.513967e+01 -7.092035e+01 1.983853e-02) (4.709792e-02 1.781128e-02 1.878735e-03) (0.000000e+00 0.000000e+00 0.000000e+00)) ((-1.903619e+00 -9.531456e-01 -3.522137e+01) (-4.703181e-05 -1.657722e-03 1.842610e-02) (0.000000e+00 0.000000e+00 0.000000e+00))
2.000000e-02	((3.775516e+01 -7.680290e+01 1.010276e-02) (4.816369e-02 1.791775e-02 1.951239e-03) (0.000000e+00 0.000000e+00 0.000000e+00)) ((-2.014609e+00 -9.987916e-01 -3.810470e+01) (-4.977711e-05 -1.706657e-03 1.869441e-02) (0.000000e+00 0.000000e+00 0.000000e+00))
2.100000e-02	((4.039593e+01 -8.287823e+01 3.090551e-03) (4.905693e-02 1.785656e-02 2.020043e-03) (0.000000e+00 0.000000e+00 0.000000e+00)) ((-2.135593e+00 -1.053630e+00 -4.106290e+01) (-6.092377e-05 -1.747734e-03 1.883250e-02) (0.000000e+00 0.000000e+00 0.000000e+00))
2.200000e-02	((4.308388e+01 -8.908098e+01 -1.152175e-04) (4.966808e-02 1.747041e-02 2.084331e-03) (0.000000e+00 0.000000e+00 0.000000e+00)) ((-2.270418e+00 -1.123003e+00 -4.407415e+01) (-7.171180e-05 -1.781853e-03 1.873492e-02) (0.000000e+00 0.000000e+00 0.000000e+00))
2.300000e-02	((4.588356e+01 -9.547115e+01 -5.357958e-04) (5.030876e-02 1.713783e-02 2.152040e-03) (0.000000e+00 0.000000e+00 0.000000e+00)) ((-2.424883e+00 -1.207080e+00 -4.718292e+01) (-7.895066e-05 -1.824341e-03 1.867145e-02) (0.000000e+00 0.000000e+00 0.000000e+00))
2.400000e-02	((4.883351e+01 -1.020400e+02 1.541087e-04) (5.105300e-02 1.697068e-02 2.226606e-03) (0.000000e+00 0.000000e+00 0.000000e+00)) ((-2.589870e+00 -1.300425e+00 -5.039600e+01) (-8.594708e-05 -1.870542e-03 1.873373e-02) (0.000000e+00 0.000000e+00 0.000000e+00))
2.500000e-02	((5.193101e+01 -1.088240e+02 -8.817816e-05) (5.192557e-02 1.695066e-02 2.308889e-03) (0.000000e+00 0.000000e+00 0.000000e+00)) ((-2.773498e+00 -1.398977e+00 -5.373129e+01) (-8.451834e-05 -1.930905e-03 1.890065e-02) (0.000000e+00 0.000000e+00 0.000000e+00))
2.600000e-02	((5.519721e+01 -1.158859e+02 -2.208489e-03) (5.284939e-02 1.700840e-02 2.394109e-03) (0.000000e+00 0.000000e+00 0.000000e+00)) ((-2.966213e+00 -1.500574e+00 -5.721721e+01) (-7.987697e-05 -1.994765e-03 1.912518e-02) (0.000000e+00 0.000000e+00 0.000000e+00))
2.700000e-02	((5.862482e+01 -1.232952e+02 -6.345293e-03) (5.380059e-02 1.711401e-02 2.480939e-03) (0.000000e+00 0.000000e+00 0.000000e+00)) ((-3.170426e+00 -1.602759e+00 -6.087862e+01) (-7.395040e-05 -2.057336e-03 1.938327e-02) (0.000000e+00 0.000000e+00 0.000000e+00))
2.800000e-02	((6.224684e+01 -1.311062e+02 -1.279318e-02) (5.472625e-02 1.722994e-02 2.567151e-03) (0.000000e+00 0.000000e+00 0.000000e+00)) ((-3.366194e+00 -1.702428e+00 -6.474309e+01) (-6.990391e-05 -2.115761e-03 1.965072e-02) (0.000000e+00 0.000000e+00 0.000000e+00))
2.900000e-02	((6.610204e+01 -1.393960e+02 -1.994189e-02) (5.561716e-02 1.733208e-02 2.649349e-03) (0.000000e+00 0.000000e+00 0.000000e+00)) ((-3.563364e+00 -1.801276e+00 -6.884892e+01) (-6.844936e-05 -2.168618e-03 1.990605e-02) (0.000000e+00 0.000000e+00 0.000000e+00))
3.000000e-02	((7.019589e+01 -1.481434e+02 -2.668104e-02) (5.644324e-02 1.740233e-02 2.727017e-03) (0.000000e+00 0.000000e+00 0.000000e+00)) ((-3.757908e+00 -1.901596e+00 -7.318688e+01) (-6.696726e-05 -2.216065e-03 2.013687e-02) (0.000000e+00 0.000000e+00 0.000000e+00))
3.100000e-02	((7.446340e+01 -1.572185e+02 -3.173491e-02) (5.714155e-02 1.740490e-02 2.802413e-03) (0.000000e+00 0.000000e+00 0.000000e+00)) ((-3.964880e+00 -2.007986e+00 -7.768890e+01) (-6.672994e-05 -2.253516e-03 2.031495e-02) (0.000000e+00 0.000000e+00 0.000000e+00))
3.200000e-02	((7.887691e+01 -1.665631e+02 -3.548757e-02) (5.776357e-02 1.739787e-02 2.883144e-03) (0.000000e+00 0.000000e+00 0.000000e+00)) ((-4.172144e+00 -2.116267e+00 -8.232576e+01) (-6.530370e-05 -2.294011e-03 2.048203e-02) (0.000000e+00 0.000000e+00 0.000000e+00))
3.300000e-02	((8.343992e+01 -1.762079e+02 -3.834284e-02) (5.843942e-02 1.744633e-02 2.966136e-03) (0.000000e+00 0.000000e+00 0.000000e+00)) ((-4.404138e+00 -2.237518e+00 -8.711194e+01) (-5.774574e-05 -2.346185e-03 2.069214e-02) (0.000000e+00 0.000000e+00 0.000000e+00))
3.400000e-02	((8.814743e+01 -1.861149e+02 -4.107794e-02) (5.918714e-02 1.755673e-02 3.046499e-03) (0.000000e+00 0.000000e+00 0.000000e+00)) ((-4.646627e+00 -2.363626e+00 -9.203356e+01) (-4.945891e-05 -2.403190e-03 2.094955e-02) (0.000000e+00 0.000000e+00 0.000000e+00))
3.500000e-02	((9.301260e+01 -1.963259e+02 -4.502313e-02) (5.997977e-02 1.772035e-02 3.127874e-03) (0.000000e+00 0.000000e+00 0.000000e+00)) ((-4.895714e+00 -2.494595e+00 -9.711459e+01) (-4.247251e-05 -2.457142e-03 2.124656e-02) (0.000000e+00 0.000000e+00 0.000000e+00))
3.600000e-02	((9.810667e+01 -2.069572e+02 -4.976426e-02) (6.079337e-02 1.793442e-02 3.205425e-03) (0.000000e+00 0.000000e+00 0.000000e+00)) ((-5.140697e+00 -2.621873e+00 -1.024152e+02) (-3.773192e-05 -2.509266e-03 2.157505e-02) (0.000000e+00 0.000000e+00 0.000000e+00))
3.700000e-02	((1.034052e+02 -2.179996e+02 -5.531751e-02) (6.160128e-02 1.818136e-02 3.290727e-03) (0.000000e+00 0.000000e+00 0.000000e+00)) ((-5.393622e+00 -2.752367e+00 -1.079222e+02) (-3.561045e-05 -2.558421e-03 2.192271e-02) (0.000000e+00 0.000000e+00 0.000000e+00))
3.800000e-02	((1.090429e+02 -2.296834e+02 -6.032383e-02) (6.236262e-02 1.845843e-02 3.377461e-03) (0.000000e+00 0.000000e+00 0.000000e+00)) ((-5.682183e+00 -2.895287e+00 -1.137579e+02) (-3.220474e-05 -2.608620e-03 2.228066e-02) (0.000000e+00 0.000000e+00 0.000000e+00))
3.900000e-02	((1.149894e+02 -2.419351e+02 -6.597398e-02) (6.302475e-02 1.874936e-02 3.463842e-03) (0.000000e+00 0.000000e+00 0.000000e+00)) ((-6.000746e+00 -3.049950e+00 -1.198908e+02) (-2.822633e-05 -2.659093e-03 2.262856e-02) (0.000000e+00 0.000000e+00 0.000000e+00))
4.000000e-02	((1.212385e+02 -2.547385e+02 -7.048892e-02) (6.355833e-02 1.905325e-02 3.547657e-03) (0.000000e+00 0.000000e+00 0.000000e+00)) ((-6.337920e+00 -3.219528e+00 -1.263129e+02) (-2.463091e-05 -2.702631e-03 2.296013e-02) (0.000000e+00 0.000000e+00 0.000000e+00))
4.100000e-02	((1.276663e+02 -2.678728e+02 -7.573301e-02) (6.381196e-02 1.934647e-02 3.632317e-03) (0.000000e+00 0.000000e+00 0.000000e+00)) ((-6.663943e+00 -3.387254e+00 -1.329066e+02) (-2.163275e-05 -2.729210e-03 2.324355e-02) (0.000000e+00 0.000000e+00 0.000000e+00))
4.200000e-02	((1.342597e+02 -2.813425e+02 -8.066648e-02) (6.409087e-02 1.967127e-02 3.701542e-03) (0.000000e+00 0.000000e+00 0.000000e+00)) ((-6.973591e+00 -3.549735e+00 -1.396669e+02) (-1.676643e-05 -2.748961e-03 2.355063e-02) (0.000000e+00 0.000000e+00 0.000000e+00))
4.300000e-02	((1.410870e+02 -2.953118e+02 -8.562807e-02) (6.461834e-02 2.002440e-02 3.784891e-03) (0.000000e+00 0.000000e+00 0.000000e+00)) ((-7.295001e+00 -3.718141e+00 -1.466799e+02) (-9.690789e-06 -2.796262e-03 2.391571e-02) (0.000000e+00 0.000000e+00 0.000000e+00))
4.400000e-02	((1.481960e+02 -3.099134e+02 -9.013951e-02) (6.526853e-02 2.037954e-02 3.870676e-03) (0.000000e+00 0.000000e+00 0.000000e+00)) ((-7.642115e+00 -3.897877e+00 -1.540077e+02) (-6.628862e-06 -2.847861e-03 2.430738e-02) (0.000000e+00 0.000000e+00 0.000000e+00))
4.500000e-02	((1.555329e+02 -3.250410e+02 -9.446162e-02) (6.595889e-02 2.074544e-02 3.961388e-03) (0.000000e+00 0.000000e+00 0.000000e+00)) ((-8.005017e+00 -4.086698e+00 -1.615938e+02) (-1.279447e-06 -2.899711e-03 2.471358e-02) (0.000000e+00 0.000000e+00 0.000000e+00))
4.600000e-02	((1.631742e+02 -3.408274e+02 -9.763401e-02) (6.674090e-02 2.114622e-02 4.056979e-03) (0.000000e+00 0.000000e+00 0.000000e+00)) ((-8.373426e+00 -4.275722e+00 -1.695082e+02) (4.707606e-06 -2.970354e-03 2.515502e-02) (0.000000e+00 0.000000e+00 0.000000e+00))
4.700000e-02	((1.710847e+02 -3.571893e+02 -1.017078e-01) (6.758795e-02 2.157501e-02 4.154062e-03) (0.000000e+00 0.000000e+00 0.000000e+00)) ((-8.758466e+00 -4.468464e+00 -1.777105e+02) (1.040249e-05 -3.067970e-03 2.562130e-02) (0.000000e+00 0.000000e+00 0.000000e+00))
4.800000e-02	((1.792483e+02 -3.740959e+02 -1.052856e-01) (6.848761e-02 2.201824e-02 4.251739e-03) (0.000000e+00 0.000000e+00 0.000000e+00)) ((-9.179504e+00 -4.675652e+00 -1.861822e+02) (1.374930e-05 -3.166405e-03 2.610549e-02) (0.000000e+00 0.000000e+00 0.000000e+00))
4.900000e-02	((1.876900e+02 -3.915300e+02 -1.099290e-01) (6.944378e-02 2.248499e-02 4.355078e-03) (0.000000e+00 0.000000e+00 0.000000e+00)) ((-9.627677e+00 -4.897019e+00 -1.949314e+02) (1.661764e-05 -3.250602e-03 2.661042e-02) (0.000000e+00 0.000000e+00 0.000000e+00))
5.000000e-02	((1.964066e+02 -4.095291e+02 -1.144642e-01) (7.050027e-02 2.298628e-02 4.454760e-03) (0.000000e+00 0.000000e+00 0.000000e+00)) ((-1.008541e+01 -5.125158e+00 -2.039669e+02) (2.466129e-05 -3.332716e-03 2.714845e-02) (0.000000e+00 0.000000e+00 0.000000e+00))
5.100000e-02	((2.054546e+02 -4.281234e+02 -1.180967e-01) (7.161262e-02 2.350820e-02 4.556718e-03) (0.000000e+00 0.000000e+00 0.000000e+00)) ((-1.054355e+01 -5.356747e+00 -2.133226e+02) (3.563728e-05 -3.415798e-03 2.770481e-02) (0.000000e+00 0.000000e+00 0.000000e+00))
5.200000e-02	((2.148376e+02 -4.473264e+02 -1.228664e-01) (7.277860e-02 2.405279e-02 4.659470e-03) (0.000000e+00 0.000000e+00 0.000000e+00)) ((-1.102307e+01 -5.595689e+00 -2.230044e+02) (4.851273e-05 -3.490927e-03 2.828067e-02) (0.000000e+00 0.000000e+00 0.000000e+00))
5.300000e-02	((2.245626e+02 -4.671036e+02 -1.283369e-01) (7.399343e-02 2.462869e-02 4.760193e-03) (0.000000e+00 0.000000e+00 0.000000e+00)) ((-1.150043e+01 -5.839853e+00 -2.330038e+02) (6.298761e-05 -3.564635e-03 2.887886e-02) (0.000000e+00 0.000000e+00 0.000000e+00))
5.400000e-02	((2.345891e+02 -4.874286e+02 -1.344957e-01) (7.528009e-02 2.522853e-02 4.855531e-03) (0.000000e+00 0.000000e+00 0.000000e+00)) ((-1.197191e+01 -6.080537e+00 -2.432972e+02) (8.235263e-05 -3.638528e-03 2.950072e-02) (0.000000e+00 0.000000e+00 0.000000e+00))
5.500000e-02	((2.448685e+02 -5.081929e+02 -1.414490e-01) (7.659418e-02 2.585002e-02 4.940529e-03) (0.000000e+00 0.000000e+00 0.000000e+00)) ((-1.245294e+01 -6.336877e+00 -2.538332e+02) (1.028691e-04 -3.715742e-03 3.013874e-02) (0.000000e+00 0.000000e+00 0.000000e+00))
5.600000e-02	((2.554252e+02 -5.294744e+02 -1.480934e-01) (7.794357e-02 2.648349e-02 5.009385e-03) (0.000000e+00 0.000000e+00 0.000000e+00)) ((-1.293398e+01 -6.600746e+00 -2.646424e+02) (1.230056e-04 -3.781623e-03 3.079003e-02) (0.000000e+00 0.000000e+00 0.000000e+00))
5.700000e-02	((2.662924e+02 -5.512712e+02 -1.557732e-01) (7.931019e-02 2.712107e-02 5.101882e-03) (0.000000e+00 0.000000e+00 0.000000e+00)) ((-1.341276e+01 -6.869120e+00 -2.757404e+02) (1.341685e-04 -3.860536e-03 3.144657e-02) (0.000000e+00 0.000000e+00 0.000000e+00))
5.800000e-02	((2.775006e+02 -5.736389e+02 -1.637857e-01) (8.069845e-02 2.776305e-02 5.214446e-03) (0.000000e+00 0.000000e+00 0.000000e+00)) ((-1.391730e+01 -7.145940e+00 -2.871582e+02) (1.417149e-04 -3.941975e-03 3.210792e-02) (0.000000e+00 0.000000e+00 0.000000e+00))
5.900000e-02	((2.890516e+02 -5.965676e+02 -1.740888e-01) (8.209394e-02 2.841070e-02 5.330012e-03) (0.000000e+00 0.000000e+00 0.000000e+00)) ((-1.445023e+01 -7.431030e+00 -2.988938e+02) (1.503406e-04 -4.024403e-03 3.277562e-02) (0.000000e+00 0.000000e+00 0.000000e+00))
6.000000e-02	((3.008831e+02 -6.198933e+02 -1.837934e-01) (8.349323e-02 2.905723e-02 5.444495e-03) (0.000000e+00 0.000000e+00 0.000000e+00)) ((-1.501428e+01 -7.727938e+00 -3.108673e+02) (1.553009e-04 -4.102007e-03 3.344211e-02) (0.000000e+00 0.000000e+00 0.000000e+00))
6.100000e-02	((3.129983e+02 -6.435648e+02 -1.905084e-01) (8.491212e-02 2.971370e-02 5.568453e-03) (0.000000e+00 0.000000e+00 0.000000e+00)) ((-1.558362e+01 -8.033764e+00 -3.230614e+02) (1.554813e-04 -4.176538e-03 3.411738e-02) (0.000000e+00 0.000000e+00 0.000000e+00))
6.200000e-02	((3.253477e+02 -6.674224e+02 -1.958303e-01) (8.635993e-02 3.037571e-02 5.698924e-03) (0.000000e+00 0.000000e+00 0.000000e+00)) ((-1.614452e+01 -8.331888e+00 -3.354035e+02) (1.555696e-04 -4.254874e-03 3.479947e-02) (0.000000e+00 0.000000e+00 0.000000e+00))
6.300000e-02	((3.379353e+02 -6.914471e+02 -1.999010e-01) (8.784674e-02 3.105387e-02 5.839068e-03) (0.000000e+00 0.000000e+00 0.000000e+00)) ((-1.672330e+01 -8.634230e+00 -3.478914e+02) (1.555702e-04 -4.339749e-03 3.549523e-02) (0.000000e+00 0.000000e+00 0.000000e+00))
6.400000e-02	((3.507651e+02 -7.157122e+02 -2.043851e-01) (8.939348e-02 3.174402e-02 5.980655e-03) (0.000000e+00 0.000000e+00 0.000000e+00)) ((-1.724871e+01 -8.917241e+00 -3.605494e+02) (1.586701e-04 -4.426092e-03 3.620453e-02) (0.000000e+00 0.000000e+00 0.000000e+00))
6.500000e-02	((3.637937e+02 -7.402486e+02 -2.100934e-01) (9.098383e-02 3.243375e-02 6.121659e-03) (0.000000e+00 0.000000e+00 0.000000e+00)) ((-1.773751e+01 -9.187719e+00 -3.733792e+02) (1.595558e-04 -4.510462e-03 3.691756e-02) (0.000000e+00 0.000000e+00 0.000000e+00))
6.600000e-02	((3.770070e+02 -7.650203e+02 -2.163073e-01) (9.262684e-02 3.312248e-02 6.259746e-03) (0.000000e+00 0.000000e+00 0.000000e+00)) ((-1.818924e+01 -9.458165e+00 -3.863614e+02) (1.671756e-04 -4.595697e-03 3.763569e-02) (0.000000e+00 0.000000e+00 0.000000e+00))
6.700000e-02	((3.902818e+02 -7.897519e+02 -2.219470e-01) (9.431879e-02 3.381292e-02 6.397208e-03) (0.000000e+00 0.000000e+00 0.000000e+00)) ((-1.855101e+01 -9.709569e+00 -3.993641e+02) (1.780367e-04 -4.685578e-03 3.836098e-02) (0.000000e+00 0.000000e+00 0.000000e+00))
6.800000e-02	((4.037562e+02 -8.146319e+02 -2.271131e-01) (9.607021e-02 3.450941e-02 6.536308e-03) (0.000000e+00 0.000000e+00 0.000000e+00)) ((-1.886296e+01 -9.959861e+00 -4.124987e+02) (1.946664e-04 -4.787889e-03 3.909582e-02) (0.000000e+00 0.000000e+00 0.000000e+00))
6.900000e-02	((4.172708e+02 -8.391781e+02 -2.307426e-01) (9.787519e-02 3.521420e-02 6.677637e-03) (0.000000e+00 0.000000e+00 0.000000e+00)) ((-1.908454e+01 -1.018848e+01 -4.255540e+02) (2.151759e-04 -4.895216e-03 3.984143e-02) (0.000000e+00 0.000000e+00 0.000000e+00))
7.000000e-02	((4.309797e+02 -8.635718e+02 -2.340547e-01) (9.974939e-02 3.593235e-02 6.816183e-03) (0.000000e+00 0.000000e+00 0.000000e+00)) ((-1.926714e+01 -1.041663e+01 -4.386374e+02) (2.382626e-04 -5.006271e-03 4.059988e-02) (0.000000e+00 0.000000e+00 0.000000e+00))
7.100000e-02	((4.446889e+02 -8.873451e+02 -2.360589e-01) (1.016976e-01 3.666481e-02 6.967353e-03) (0.000000e+00 0.000000e+00 0.000000e+00)) ((-1.943056e+01 -1.063849e+01 -4.515185e+02) (2.578865e-04 -5.122677e-03 4.137169e-02) (0.000000e+00 0.000000e+00 0.000000e+00))
7.200000e-02	((4.584134e+02 -9.105826e+02 -2.382853e-01) (1.037093e-01 3.742416e-02 7.125538e-03) (0.000000e+00 0.000000e+00 0.000000e+00)) ((-1.959346e+01 -1.083289e+01 -4.642357e+02) (2.736918e-04 -5.239978e-03 4.216152e-02) (0.000000e+00 0.000000e+00 0.000000e+00))
7.300000e-02	((4.720360e+02 -9.332469e+02 -2.404417e-01) (1.058022e-01 3.820906e-02 7.288402e-03) (0.000000e+00 0.000000e+00 0.000000e+00)) ((-1.979469e+01 -1.101078e+01 -4.767415e+02) (2.838778e-04 -5.357277e-03 4.297119e-02) (0.000000e+00 0.000000e+00 0.000000e+00))
7.400000e-02	((4.855584e+02 -9.553646e+02 -2.424687e-01) (1.080004e-01 3.902958e-02 7.447738e-03) (0.000000e+00 0.000000e+00 0.000000e+00)) ((-1.997451e+01 -1.115745e+01 -4.890410e+02) (2.906495e-04 -5.465968e-03 4.380931e-02) (0.000000e+00 0.000000e+00 0.000000e+00))
7.500000e-02	((4.988710e+02 -9.767246e+02 -2.442373e-01) (1.102954e-01 3.989683e-02 7.611048e-03) (0.000000e+00 0.000000e+00 0.000000e+00)) ((-2.004381e+01 -1.126845e+01 -5.010294e+02) (3.028731e-04 -5.580198e-03 4.468257e-02) (0.000000e+00 0.000000e+00 0.000000e+00))
7.600000e-02	((5.120179e+02 -9.976463e+02 -2.445681e-01) (1.127184e-01 4.082099e-02 7.770171e-03) (0.000000e+00 0.000000e+00 0.000000e+00)) ((-1.992379e+01 -1.132894e+01 -5.128306e+02) (3.179496e-04 -5.691955e-03 4.559888e-02) (0.000000e+00 0.000000e+00 0.000000e+00))
7.700000e-02	((5.250384e+02 -1.018551e+03 -2.431187e-01) (1.152680e-01 4.180731e-02 7.937950e-03) (0.000000e+00 0.000000e+00 0.000000e+00)) ((-1.967087e+01 -1.136597e+01 -5.246129e+02) (3.383729e-04 -5.815170e-03 4.656334e-02) (0.000000e+00 0.000000e+00 0.000000e+00))
7.800000e-02	((5.378221e+02 -1.039340e+03 -2.406839e-01) (1.179302e-01 4.285893e-02 8.108088e-03) (0.000000e+00 0.000000e+00 0.000000e+00)) ((-1.930156e+01 -1.135167e+01 -5.362998e+02) (3.658701e-04 -5.950091e-03 4.757575e-02) (0.000000e+00 0.000000e+00 0.000000e+00))
7.900000e-02	((5.502895e+02 -1.059769e+03 -2.355523e-01) (1.206750e-01 4.396830e-02 8.277471e-03) (0.000000e+00 0.000000e+00 0.000000e+00)) ((-1.883528e+01 -1.129948e+01 -5.477881e+02) (3.990316e-04 -6.085812e-03 4.862993e-02) (0.000000e+00 0.000000e+00 0.000000e+00))
8.000000e-02	((5.624337e+02 -1.079849e+03 -2.287366e-01) (1.234229e-01 4.513853e-02 8.448195e-03) (0.000000e+00 0.000000e+00 0.000000e+00)) ((-1.838341e+01 -1.123311e+01 -5.590818e+02) (4.377495e-04 -6.219238e-03 4.971865e-02) (0.000000e+00 0.000000e+00 0.000000e+00))
8.100000e-02	((5.742589e+02 -1.099673e+03 -2.197373e-01) (1.261924e-01 4.637084e-02 8.612174e-03) (0.000000e+00 0.000000e+00 0.000000e+00)) ((-1.797229e+01 -1.116599e+01 -5.702206e+02) (4.826232e-04 -6.351912e-03 5.084286e-02) (0.000000e+00 0.000000e+00 0.000000e+00))
8.200000e-02	((5.856236e+02 -1.119087e+03 -2.100144e-01) (1.289559e-01 4.765294e-02 8.772983e-03) (0.000000e+00 0.000000e+00 0.000000e+00)) ((-1.764205e+01 -1.110608e+01 -5.811026e+02) (5.347281e-04 -6.481264e-03 5.199386e-02) (0.000000e+00 0.000000e+00 0.000000e+00))
8.300000e-02	((5.964915e+02 -1.138155e+03 -2.012380e-01) (1.316976e-01 4.898369e-02 8.915463e-03) (0.000000e+00 0.000000e+00 0.000000e+00)) ((-1.752088e+01 -1.108428e+01 -5.917410e+02) (5.912128e-04 -6.600394e-03 5.316987e-02) (0.000000e+00 0.000000e+00 0.000000e+00))
8.400000e-02	((6.067160e+02 -1.156675e+03 -1.938400e-01) (1.343172e-01 5.033797e-02 9.042527e-03) (0.000000e+00 0.000000e+00 0.000000e+00)) ((-1.751113e+01 -1.105775e+01 -6.020179e+02) (6.417450e-04 -6.696669e-03 5.434450e-02) (0.000000e+00 0.000000e+00 0.000000e+00))
8.500000e-02	((6.164495e+02 -1.174880e+03 -1.876775e-01) (1.368544e-01 5.170800e-02 9.161690e-03) (0.000000e+00 0.000000e+00 0.000000e+00)) ((-1.754028e+01 -1.101726e+01 -6.120649e+02) (6.790961e-04 -6.765646e-03 5.552081e-02) (0.000000e+00 0.000000e+00 0.000000e+00))
8.600000e-02	((6.257803e+02 -1.192929e+03 -1.831006e-01) (1.392378e-01 5.308442e-02 9.279025e-03) (0.000000e+00 0.000000e+00 0.000000e+00)) ((-1.741416e+01 -1.091920e+01 -6.219659e+02) (7.036067e-04 -6.809862e-03 5.668444e-02) (0.000000e+00 0.000000e+00 0.000000e+00))
8.700000e-02	((6.349113e+02 -1.211265e+03 -1.770413e-01) (1.414130e-01 5.439803e-02 9.448209e-03) (0.000000e+00 0.000000e+00 0.000000e+00)) ((-1.712468e+01 -1.078403e+01 -6.319324e+02) (7.017860e-04 -6.845337e-03 5.778759e-02) (0.000000e+00 0.000000e+00 0.000000e+00))
8.800000e-02	((6.439086e+02 -1.229723e+03 -1.718630e-01) (1.433282e-01 5.565662e-02 9.647943e-03) (0.000000e+00 0.000000e+00 0.000000e+00)) ((-1.663544e+01 -1.060963e+01 -6.419223e+02) (6.847470e-04 -6.884595e-03 5.882769e-02) (0.000000e+00 0.000000e+00 0.000000e+00))
8.900000e-02	((6.526845e+02 -1.247988e+03 -1.678994e-01) (1.450638e-01 5.684965e-02 9.895293e-03) (0.000000e+00 0.000000e+00 0.000000e+00)) ((-1.601842e+01 -1.041598e+01 -6.517827e+02) (6.515635e-04 -6.932593e-03 5.980805e-02) (0.000000e+00 0.000000e+00 0.000000e+00))
9.000000e-02	((6.611852e+02 -1.265755e+03 -1.625916e-01) (1.465909e-01 5.795262e-02 1.016902e-02) (0.000000e+00 0.000000e+00 0.000000e+00)) ((-1.532420e+01 -1.019926e+01 -6.613843e+02) (6.131218e-04 -7.006342e-03 6.071501e-02) (0.000000e+00 0.000000e+00 0.000000e+00))
9.100000e-02	((6.693979e+02 -1.282921e+03 -1.563349e-01) (1.479508e-01 5.894792e-02 1.042270e-02) (0.000000e+00 0.000000e+00 0.000000e+00)) ((-1.462668e+01 -9.963151e+00 -6.706793e+02) (5.909921e-04 -7.086140e-03 6.154137e-02) (0.000000e+00 0.000000e+00 0.000000e+00))
9.200000e-02	((6.773221e+02 -1.299378e+03 -1.527879e-01) (1.491200e-01 5.980234e-02 1.064880e-02) (0.000000e+00 0.000000e+00 0.000000e+00)) ((-1.399568e+01 -9.713373e+00 -6.796173e+02) (5.817391e-04 -7.170526e-03 6.226837e-02) (0.000000e+00 0.000000e+00 0.000000e+00))
9.300000e-02	((6.849965e+02 -1.315233e+03 -1.540285e-01) (1.501711e-01 6.055787e-02 1.083707e-02) (0.000000e+00 0.000000e+00 0.000000e+00)) ((-1.349244e+01 -9.479471e+00 -6.882478e+02) (5.829690e-04 -7.244849e-03 6.292815e-02) (0.000000e+00 0.000000e+00 0.000000e+00))
9.400000e-02	((6.923916e+02 -1.330482e+03 -1.593675e-01) (1.511638e-01 6.123780e-02 1.098941e-02) (0.000000e+00 0.000000e+00 0.000000e+00)) ((-1.307634e+01 -9.256559e+00 -6.965513e+02) (5.842112e-04 -7.312631e-03 6.353963e-02) (0.000000e+00 0.000000e+00 0.000000e+00))
9.500000e-02	((6.996174e+02 -1.345349e+03 -1.675387e-01) (1.521116e-01 6.183085e-02 1.112929e-02) (0.000000e+00 0.000000e+00 0.000000e+00)) ((-1.270235e+01 -9.041960e+00 -7.046449e+02) (5.870688e-04 -7.386445e-03 6.409886e-02) (0.000000e+00 0.000000e+00 0.000000e+00))
9.600000e-02	((7.067341e+02 -1.359947e+03 -1.755547e-01) (1.530078e-01 6.235447e-02 1.123959e-02) (0.000000e+00 0.000000e+00 0.000000e+00)) ((-1.231493e+01 -8.817589e+00 -7.125868e+02) (5.906239e-04 -7.452468e-03 6.460958e-02) (0.000000e+00 0.000000e+00 0.000000e+00))
9.700000e-02	((7.137405e+02 -1.374279e+03 -1.844415e-01) (1.539451e-01 6.284917e-02 1.134241e-02) (0.000000e+00 0.000000e+00 0.000000e+00)) ((-1.182479e+01 -8.555219e+00 -7.203806e+02) (6.025181e-04 -7.534930e-03 6.510971e-02) (0.000000e+00 0.000000e+00 0.000000e+00))
9.800000e-02	((7.207697e+02 -1.388415e+03 -1.934289e-01) (1.549414e-01 6.334076e-02 1.145716e-02) (0.000000e+00 0.000000e+00 0.000000e+00)) ((-1.117467e+01 -8.236856e+00 -7.280893e+02) (6.142859e-04 -7.652775e-03 6.561434e-02) (0.000000e+00 0.000000e+00 0.000000e+00))
9.900000e-02	((7.276902e+02 -1.402210e+03 -2.030025e-01) (1.560290e-01 6.382580e-02 1.157122e-02) (0.000000e+00 0.000000e+00 0.000000e+00)) ((-1.044456e+01 -7.879541e+00 -7.356141e+02) (6.258446e-04 -7.778050e-03 6.612974e-02) (0.000000e+00 0.000000e+00 0.000000e+00))
1.000000e-01	((7.343683e+02 -1.415549e+03 -2.085058e-01) (1.571796e-01 6.428966e-02 1.166941e-02) (0.000000e+00 0.000000e+00 0.000000e+00)) ((-9.663320e+00 -7.490166e+00 -7.428650e+02) (6.278136e-04 -7.911999e-03 6.664159e-02) (0.000000e+00 0.000000e+00 0.000000e+00))
1.010000e-01	((7.405592e+02 -1.428099e+03 -2.124441e-01) (1.584005e-01 6.473355e-02 1.174275e-02) (0.000000e+00 0.000000e+00 0.000000e+00)) ((-8.911110e+00 -7.092468e+00 -7.496410e+02) (6.272959e-04 -8.050206e-03 6.715243e-02) (0.000000e+00 0.000000e+00 0.000000e+00))
1.020000e-01	((7.461525e+02 -1.439701e+03 -2.195091e-01) (1.596915e-01 6.517426e-02 1.180257e-02) (0.000000e+00 0.000000e+00 0.000000e+00)) ((-8.185503e+00 -6.684728e+00 -7.558494e+02) (6.263130e-04 -8.199454e-03 6.767194e-02) (0.000000e+00 0.000000e+00 0.000000e+00))
1.030000e-01	((7.510981e+02 -1.450173e+03 -2.322784e-01) (1.610650e-01 6.561491e-02 1.180863e-02) (0.000000e+00 0.000000e+00 0.000000e+00)) ((-7.512729e+00 -6.271544e+00 -7.614131e+02) (6.303365e-04 -8.323826e-03 6.820464e-02) (0.000000e+00 0.000000e+00 0.000000e+00))
1.040000e-01	((7.553047e+02 -1.459463e+03 -2.428050e-01) (1.625448e-01 6.610098e-02 1.177905e-02) (0.000000e+00 0.000000e+00 0.000000e+00)) ((-6.859520e+00 -5.819416e+00 -7.662853e+02) (6.296304e-04 -8.430708e-03 6.877702e-02) (0.000000e+00 0.000000e+00 0.000000e+00))
1.050000e-01	((7.588627e+02 -1.467932e+03 -2.440714e-01) (1.640794e-01 6.664552e-02 1.172825e-02) (0.000000e+00 0.000000e+00 0.000000e+00)) ((-6.172214e+00 -5.303680e+00 -7.706317e+02) (6.405384e-04 -8.525735e-03 6.939229e-02) (0.000000e+00 0.000000e+00 0.000000e+00))
1.060000e-01	((7.618943e+02 -1.475967e+03 -2.354994e-01) (1.656000e-01 6.720516e-02 1.165690e-02) (0.000000e+00 0.000000e+00 0.000000e+00)) ((-5.488719e+00 -4.748509e+00 -7.746336e+02) (6.697467e-04 -8.604901e-03 7.001833e-02) (0.000000e+00 0.000000e+00 0.000000e+00))
1.070000e-01	((7.645681e+02 -1.483835e+03 -2.190310e-01) (1.671280e-01 6.777592e-02 1.158189e-02) (0.000000e+00 0.000000e+00 0.000000e+00)) ((-4.839103e+00 -4.160873e+00 -7.784454e+02) (6.960564e-04 -8.645038e-03 7.065667e-02) (0.000000e+00 0.000000e+00 0.000000e+00))
1.080000e-01	((7.668520e+02 -1.491488e+03 -1.894668e-01) (1.685912e-01 6.832797e-02 1.149126e-02) (0.000000e+00 0.000000e+00 0.000000e+00)) ((-4.177144e+00 -3.538552e+00 -7.820426e+02) (7.274427e-04 -8.674378e-03 7.128070e-02) (0.000000e+00 0.000000e+00 0.000000e+00))
1.090000e-01	((7.688030e+02 -1.499093e+03 -1.472105e-01) (1.699616e-01 6.884536e-02 1.142509e-02) (0.000000e+00 0.000000e+00 0.000000e+00)) ((-3.504584e+00 -2.902990e+00 -7.855103e+02) (7.513354e-04 -8.666160e-03 7.187984e-02) (0.000000e+00 0.000000e+00 0.000000e+00))
1.100000e-01	((7.703491e+02 -1.506536e+03 -9.072700e-02) (1.712346e-01 6.931998e-02 1.139650e-02) (0.000000e+00 0.000000e+00 0.000000e+00)) ((-2.832395e+00 -2.280942e+00 -7.887827e+02) (7.658377e-04 -8.648336e-03 7.244885e-02) (0.000000e+00 0.000000e+00 0.000000e+00))