# Force coefficients
# liftDir    : (0.000000e+00 1.000000e+00 0.000000e+00)
# dragDir    : (1.000000e+00 0.000000e+00 0.000000e+00)
# pitchAxis  : (0.000000e+00 0.000000e+00 1.000000e+00)
# magUInf    : 5.148000e+01
# lRef       : 4.530000e-01
# Aref       : 4.348800e-01
# CofR       : (0.000000e+00 0.000000e+00 0.000000e+00)
# Time       	Cm           	Cd           	Cl           	Cl(f)        	Cl(r)        	Cm	Cd	Cl	Cl(f)	Cl(r)
1.000000e-03	-2.166753e-02	1.285200e-02	-1.591245e-02	-2.962375e-02	1.371130e-02
2.000000e-03	-9.478930e-02	5.473154e-02	-7.538270e-02	-1.324806e-01	5.709795e-02
3.000000e-03	-1.610018e-01	9.212229e-02	-1.300233e-01	-2.260135e-01	9.599016e-02
4.000000e-03	-1.925830e-01	1.097717e-01	-1.568344e-01	-2.710002e-01	1.141658e-01
5.000000e-03	-1.931555e-01	1.093070e-01	-1.589485e-01	-2.726297e-01	1.136812e-01
6.000000e-03	-1.686486e-01	9.422565e-02	-1.408961e-01	-2.390967e-01	9.820060e-02
7.000000e-03	-1.284602e-01	7.003532e-02	-1.101553e-01	-1.835378e-01	7.338251e-02
8.000000e-03	-8.268786e-02	4.261662e-02	-7.486209e-02	-1.201189e-01	4.525681e-02
9.000000e-03	-3.570958e-02	1.453603e-02	-3.808925e-02	-5.475421e-02	1.666496e-02
1.000000e-02	-1.134168e-04	-6.855481e-03	-1.013866e-02	-5.182748e-03	-4.955914e-03
1.100000e-02	2.400538e-02	-2.153646e-02	9.101559e-03	2.855616e-02	-1.945460e-02
1.200000e-02	3.241189e-02	-2.692141e-02	1.612783e-02	4.047580e-02	-2.434797e-02
1.300000e-02	2.625865e-02	-2.358482e-02	1.181134e-02	3.216432e-02	-2.035298e-02
1.400000e-02	8.344151e-03	-1.318809e-02	-1.737797e-03	7.475253e-03	-9.213050e-03
1.500000e-02	-1.687116e-02	1.608571e-03	-2.112308e-02	-2.743269e-02	6.309618e-03
1.600000e-02	-4.477963e-02	1.798554e-02	-4.282783e-02	-6.619355e-02	2.336572e-02
1.700000e-02	-6.904211e-02	3.216151e-02	-6.178907e-02	-9.993665e-02	3.814758e-02
1.800000e-02	-8.858457e-02	4.343912e-02	-7.737090e-02	-1.272700e-01	4.989912e-02
1.900000e-02	-1.033022e-01	5.172121e-02	-8.961125e-02	-1.481078e-01	5.849653e-02
2.000000e-02	-1.116557e-01	5.607310e-02	-9.717889e-02	-1.602451e-01	6.306621e-02
2.100000e-02	-1.142371e-01	5.685088e-02	-1.004659e-01	-1.644700e-01	6.400409e-02
2.200000e-02	-1.127066e-01	5.499066e-02	-1.006800e-01	-1.630466e-01	6.236655e-02
2.300000e-02	-1.082596e-01	5.132088e-02	-9.861952e-02	-1.575694e-01	5.894987e-02
2.400000e-02	-1.037320e-01	4.757260e-02	-9.646301e-02	-1.519635e-01	5.550049e-02
2.500000e-02	-9.942340e-02	4.399886e-02	-9.426559e-02	-1.465562e-01	5.229060e-02
2.600000e-02	-9.657913e-02	4.137563e-02	-9.295192e-02	-1.430551e-01	5.010317e-02
2.700000e-02	-9.557858e-02	3.996088e-02	-9.277633e-02	-1.419667e-01	4.919041e-02
2.800000e-02	-9.748861e-02	4.038072e-02	-9.466529e-02	-1.448213e-01	5.015596e-02
2.900000e-02	-1.020835e-01	4.250311e-02	-9.849861e-02	-1.513328e-01	5.283419e-02
3.000000e-02	-1.089637e-01	4.605079e-02	-1.040543e-01	-1.609909e-01	5.693661e-02
3.100000e-02	-1.172691e-01	5.047000e-02	-1.107295e-01	-1.726338e-01	6.190433e-02
3.200000e-02	-1.256846e-01	5.494504e-02	-1.175271e-01	-1.844482e-01	6.692106e-02
3.300000e-02	-1.337982e-01	5.918854e-02	-1.242050e-01	-1.959007e-01	7.169568e-02
3.400000e-02	-1.418105e-01	6.327776e-02	-1.310153e-01	-2.073181e-01	7.630278e-02
3.500000e-02	-1.490786e-01	6.681585e-02	-1.374369e-01	-2.177971e-01	8.036018e-02
3.600000e-02	-1.554570e-01	6.970558e-02	-1.433382e-01	-2.271261e-01	8.378786e-02
3.700000e-02	-1.609662e-01	7.197868e-02	-1.486943e-01	-2.353133e-01	8.661903e-02
3.800000e-02	-1.659611e-01	7.385589e-02	-1.537440e-01	-2.428331e-01	8.908906e-02
3.900000e-02	-1.709831e-01	7.567591e-02	-1.588813e-01	-2.504238e-01	9.154249e-02
4.000000e-02	-1.760451e-01	7.748574e-02	-1.640493e-01	-2.580698e-01	9.402045e-02
4.100000e-02	-1.811318e-01	7.932187e-02	-1.691721e-01	-2.657178e-01	9.654571e-02
4.200000e-02	-1.862610e-01	8.122309e-02	-1.742259e-01	-2.733740e-01	9.914807e-02
4.300000e-02	-1.917490e-01	8.338698e-02	-1.794645e-01	-2.814813e-01	1.020168e-01
4.400000e-02	-1.976953e-01	8.587273e-02	-1.849792e-01	-2.901849e-01	1.052057e-01
4.500000e-02	-2.041393e-01	8.868685e-02	-1.908244e-01	-2.995515e-01	1.087271e-01
4.600000e-02	-2.110316e-01	9.178211e-02	-1.969923e-01	-3.095277e-01	1.125354e-01
4.700000e-02	-2.182637e-01	9.507163e-02	-2.034267e-01	-3.199770e-01	1.165504e-01
4.800000e-02	-2.256851e-01	9.844485e-02	-2.100355e-01	-3.307028e-01	1.206673e-01
4.900000e-02	-2.330842e-01	1.017586e-01	-2.166668e-01	-3.414176e-01	1.247508e-01
5.000000e-02	-2.406694e-01	1.051128e-01	-2.235227e-01	-3.524308e-01	1.289081e-01
5.100000e-02	-2.484656e-01	1.085129e-01	-2.306349e-01	-3.637830e-01	1.331481e-01
5.200000e-02	-2.563242e-01	1.118872e-01	-2.378723e-01	-3.752604e-01	1.373881e-01
5.300000e-02	-2.642959e-01	1.152678e-01	-2.452671e-01	-3.869294e-01	1.416623e-01
5.400000e-02	-2.725011e-01	1.187313e-01	-2.529049e-01	-3.989535e-01	1.460486e-01
5.500000e-02	-2.808921e-01	1.222716e-01	-2.607245e-01	-4.112544e-01	1.505299e-01
5.600000e-02	-2.894312e-01	1.258826e-01	-2.686762e-01	-4.237693e-01	1.550931e-01
5.700000e-02	-2.980986e-01	1.295596e-01	-2.767275e-01	-4.364624e-01	1.597349e-01
5.800000e-02	-3.068407e-01	1.332813e-01	-2.848214e-01	-4.492514e-01	1.644300e-01
5.900000e-02	-3.156930e-01	1.370733e-01	-2.929844e-01	-4.621852e-01	1.692008e-01
6.000000e-02	-3.246622e-01	1.409416e-01	-3.012222e-01	-4.752733e-01	1.740511e-01
6.100000e-02	-3.337581e-01	1.448863e-01	-3.095485e-01	-4.885324e-01	1.789839e-01
6.200000e-02	-3.430137e-01	1.489173e-01	-3.179967e-01	-5.020121e-01	1.840154e-01
6.300000e-02	-3.524696e-01	1.530446e-01	-3.266110e-01	-5.157751e-01	1.891640e-01
6.400000e-02	-3.621252e-01	1.572622e-01	-3.354005e-01	-5.298254e-01	1.944250e-01
6.500000e-02	-3.719499e-01	1.615446e-01	-3.443449e-01	-5.441223e-01	1.997774e-01
6.600000e-02	-3.819892e-01	1.659111e-01	-3.534894e-01	-5.587339e-01	2.052445e-01
6.700000e-02	-3.922948e-01	1.703854e-01	-3.628853e-01	-5.737375e-01	2.108521e-01
6.800000e-02	-4.028733e-01	1.749714e-01	-3.725369e-01	-5.891417e-01	2.166048e-01
6.900000e-02	-4.137012e-01	1.796592e-01	-3.824236e-01	-6.049130e-01	2.224894e-01
7.000000e-02	-4.247745e-01	1.844506e-01	-3.925381e-01	-6.210435e-01	2.285054e-01
7.100000e-02	-4.360760e-01	1.893390e-01	-4.028638e-01	-6.375078e-01	2.346441e-01
7.200000e-02	-4.475556e-01	1.943067e-01	-4.133512e-01	-6.542311e-01	2.408800e-01
7.300000e-02	-4.591954e-01	1.993455e-01	-4.239806e-01	-6.711857e-01	2.472051e-01
7.400000e-02	-4.709597e-01	2.044386e-01	-4.347183e-01	-6.883188e-01	2.536005e-01
7.500000e-02	-4.828425e-01	2.095849e-01	-4.455593e-01	-7.056222e-01	2.600628e-01
7.600000e-02	-4.948270e-01	2.147792e-01	-4.564860e-01	-7.230700e-01	2.665840e-01
7.700000e-02	-5.069617e-01	2.200402e-01	-4.675423e-01	-7.407328e-01	2.731905e-01
7.800000e-02	-5.192623e-01	2.253754e-01	-4.787426e-01	-7.586336e-01	2.798910e-01
7.900000e-02	-5.317473e-01	2.307916e-01	-4.901036e-01	-7.767992e-01	2.866955e-01
8.000000e-02	-5.444377e-01	2.362993e-01	-5.016430e-01	-7.952592e-01	2.936162e-01
8.100000e-02	-5.573532e-01	2.419066e-01	-5.133800e-01	-8.140432e-01	3.006631e-01
8.200000e-02	-5.705042e-01	2.476199e-01	-5.253234e-01	-8.331659e-01	3.078425e-01
8.300000e-02	-5.838940e-01	2.534405e-01	-5.374757e-01	-8.526318e-01	3.151561e-01
8.400000e-02	-5.975137e-01	2.593660e-01	-5.498286e-01	-8.724280e-01	3.225993e-01
8.500000e-02	-6.113499e-01	2.653917e-01	-5.623670e-01	-8.925334e-01	3.301664e-01
8.600000e-02	-6.253957e-01	2.715153e-01	-5.750854e-01	-9.129384e-01	3.378530e-01
8.700000e-02	-6.396462e-01	2.777346e-01	-5.879778e-01	-9.336350e-01	3.456573e-01
8.800000e-02	-6.540723e-01	2.840378e-01	-6.010169e-01	-9.545807e-01	3.535638e-01
8.900000e-02	-6.686676e-01	2.904205e-01	-6.141980e-01	-9.757666e-01	3.615686e-01
9.000000e-02	-6.834265e-01	2.968773e-01	-6.275171e-01	-9.971851e-01	3.696679e-01
9.100000e-02	-6.983231e-01	3.033927e-01	-6.409549e-01	-1.018801e+00	3.778457e-01
9.200000e-02	-7.133673e-01	3.099697e-01	-6.545224e-01	-1.040629e+00	3.861061e-01
9.300000e-02	-7.285911e-01	3.166207e-01	-6.682477e-01	-1.062715e+00	3.944672e-01
9.400000e-02	-7.439981e-01	3.233456e-01	-6.821370e-01	-1.085067e+00	4.029296e-01
9.500000e-02	-7.595933e-01	3.301466e-01	-6.961931e-01	-1.107690e+00	4.114967e-01
9.600000e-02	-7.753751e-01	3.370258e-01	-7.104123e-01	-1.130581e+00	4.201689e-01
9.700000e-02	-7.913368e-01	3.439838e-01	-7.247846e-01	-1.153729e+00	4.289445e-01
9.800000e-02	-8.074789e-01	3.510219e-01	-7.393087e-01	-1.177133e+00	4.378246e-01
9.900000e-02	-8.238208e-01	3.581542e-01	-7.539940e-01	-1.200818e+00	4.468238e-01
1.000000e-01	-8.403480e-01	3.653752e-01	-7.688272e-01	-1.224762e+00	4.559344e-01
1.010000e-01	-8.570436e-01	3.726780e-01	-7.837940e-01	-1.248941e+00	4.651466e-01
1.020000e-01	-8.737975e-01	3.800157e-01	-7.987984e-01	-1.273197e+00	4.743983e-01
1.030000e-01	-8.908264e-01	3.874787e-01	-8.140292e-01	-1.297841e+00	4.838118e-01
1.040000e-01	-9.079749e-01	3.950012e-01	-8.293526e-01	-1.322651e+00	4.932986e-01
1.050000e-01	-9.252597e-01	4.025896e-01	-8.447821e-01	-1.347651e+00	5.028686e-01
1.060000e-01	-9.426585e-01	4.102320e-01	-8.602998e-01	-1.372808e+00	5.125086e-01
1.070000e-01	-9.601643e-01	4.179257e-01	-8.758990e-01	-1.398114e+00	5.222148e-01
1.080000e-01	-9.777981e-01	4.256794e-01	-8.915981e-01	-1.423597e+00	5.319991e-01
1.090000e-01	-9.955336e-01	4.334838e-01	-9.073711e-01	-1.449219e+00	5.418480e-01
1.100000e-01	-1.013377e+00	4.413427e-01	-9.232214e-01	-1.474988e+00	5.517664e-01
1.110000e-01	-1.031317e+00	4.492538e-01	-9.391344e-01	-1.500884e+00	5.617501e-01
1.120000e-01	-1.049361e+00	4.572195e-01	-9.551149e-01	-1.526918e+00	5.718033e-01
1.130000e-01	-1.067498e+00	4.652387e-01	-9.711502e-01	-1.553073e+00	5.819227e-01
1.140000e-01	-1.085731e+00	4.733152e-01	-9.872405e-01	-1.579352e+00	5.921111e-01
1.150000e-01	-1.104054e+00	4.814506e-01	-1.003372e+00	-1.605740e+00	6.023677e-01
1.160000e-01	-1.122331e+00	4.895906e-01	-1.019428e+00	-1.632046e+00	6.126172e-01
1.170000e-01	-1.140709e+00	4.977973e-01	-1.035534e+00	-1.658476e+00	6.229419e-01
1.180000e-01	-1.159194e+00	5.060717e-01	-1.051699e+00	-1.685044e+00	6.333445e-01
1.190000e-01	-1.177782e+00	5.144102e-01	-1.067920e+00	-1.711741e+00	6.438218e-01
1.200000e-01	-1.196453e+00	5.228029e-01	-1.084182e+00	-1.738543e+00	6.543617e-01
1.210000e-01	-1.215315e+00	5.312930e-01	-1.100583e+00	-1.765607e+00	6.650237e-01
1.220000e-01	-1.234163e+00	5.397921e-01	-1.116945e+00	-1.792635e+00	6.756906e-01
1.230000e-01	-1.252954e+00	5.482846e-01	-1.133227e+00	-1.819568e+00	6.863411e-01
1.240000e-01	-1.271669e+00	5.567620e-01	-1.149409e+00	-1.846373e+00	6.969640e-01
1.250000e-01	-1.290291e+00	5.652225e-01	-1.165473e+00	-1.873028e+00	7.075550e-01
1.260000e-01	-1.308695e+00	5.736137e-01	-1.181304e+00	-1.899347e+00	7.180430e-01
1.270000e-01	-1.327060e+00	5.820142e-01	-1.197055e+00	-1.925587e+00	7.285322e-01
1.280000e-01	-1.345420e+00	5.904374e-01	-1.212757e+00	-1.951798e+00	7.390417e-01
1.290000e-01	-1.363781e+00	5.988843e-01	-1.228413e+00	-1.977988e+00	7.495747e-01
1.300000e-01	-1.382156e+00	6.073581e-01	-1.244035e+00	-2.004173e+00	7.601385e-01
1.310000e-01	-1.400550e+00	6.158598e-01	-1.259629e+00	-2.030364e+00	7.707356e-01
1.320000e-01	-1.418950e+00	6.243808e-01	-1.275186e+00	-2.056542e+00	7.813569e-01
1.330000e-01	-1.437330e+00	6.329078e-01	-1.290685e+00	-2.082672e+00	7.919869e-01
1.340000e-01	-1.455667e+00	6.414273e-01	-1.306113e+00	-2.108723e+00	8.026104e-01
1.350000e-01	-1.473926e+00	6.499223e-01	-1.321437e+00	-2.134644e+00	8.132074e-01
1.360000e-01	-1.492058e+00	6.583693e-01	-1.336619e+00	-2.160367e+00	8.237484e-01
1.370000e-01	-1.510050e+00	6.667654e-01	-1.351647e+00	-2.185873e+00	8.342265e-01
1.380000e-01	-1.527899e+00	6.751091e-01	-1.366518e+00	-2.211158e+00	8.446397e-01
1.390000e-01	-1.545587e+00	6.833914e-01	-1.381218e+00	-2.236196e+00	8.549782e-01
1.400000e-01	-1.563113e+00	6.916093e-01	-1.395746e+00	-2.260986e+00	8.652399e-01
1.410000e-01	-1.580499e+00	6.997679e-01	-1.410125e+00	-2.285562e+00	8.754367e-01
1.420000e-01	-1.597732e+00	7.078615e-01	-1.424342e+00	-2.309903e+00	8.855609e-01
1.430000e-01	-1.614811e+00	7.158890e-01	-1.438398e+00	-2.334011e+00	8.956124e-01
1.440000e-01	-1.631732e+00	7.238466e-01	-1.452287e+00	-2.357875e+00	9.055882e-01
1.450000e-01	-1.648488e+00	7.317304e-01	-1.466004e+00	-2.381490e+00	9.154860e-01
1.460000e-01	-1.665072e+00	7.395349e-01	-1.479543e+00	-2.404843e+00	9.253006e-01
1.470000e-01	-1.681497e+00	7.472705e-01	-1.492910e+00	-2.427952e+00	9.350424e-01
1.480000e-01	-1.697741e+00	7.549305e-01	-1.506082e+00	-2.450782e+00	9.447002e-01
1.490000e-01	-1.713783e+00	7.625066e-01	-1.519039e+00	-2.473302e+00	9.542632e-01
1.500000e-01	-1.729633e+00	7.700051e-01	-1.531789e+00	-2.495528e+00	9.637388e-01
1.510000e-01	-1.745258e+00	7.774109e-01	-1.544303e+00	-2.517409e+00	9.731069e-01
1.520000e-01	-1.760645e+00	7.847186e-01	-1.556569e+00	-2.538929e+00	9.823603e-01
1.530000e-01	-1.775802e+00	7.919345e-01	-1.568592e+00	-2.560098e+00	9.915061e-01
1.540000e-01	-1.790727e+00	7.990550e-01	-1.580370e+00	-2.580912e+00	1.000542e+00
1.550000e-01	-1.805441e+00	8.060854e-01	-1.591923e+00	-2.601402e+00	1.009480e+00
1.560000e-01	-1.819938e+00	8.130197e-01	-1.603252e+00	-2.621564e+00	1.018312e+00
1.570000e-01	-1.834239e+00	8.198597e-01	-1.614384e+00	-2.641430e+00	1.027047e+00
1.580000e-01	-1.848351e+00	8.266049e-01	-1.625330e+00	-2.661016e+00	1.035686e+00
1.590000e-01	-1.862249e+00	8.332411e-01	-1.636073e+00	-2.680286e+00	1.044213e+00
1.600000e-01	-1.875943e+00	8.397709e-01	-1.646626e+00	-2.699256e+00	1.052630e+00
1.610000e-01	-1.889444e+00	8.462027e-01	-1.656998e+00	-2.717943e+00	1.060945e+00
1.620000e-01	-1.902745e+00	8.525354e-01	-1.667184e+00	-2.736337e+00	1.069153e+00
1.630000e-01	-1.915849e+00	8.587644e-01	-1.677195e+00	-2.754446e+00	1.077251e+00
1.640000e-01	-1.928764e+00	8.648903e-01	-1.687049e+00	-2.772289e+00	1.085240e+00
1.650000e-01	-1.941484e+00	8.709109e-01	-1.696739e+00	-2.789853e+00	1.093114e+00
1.660000e-01	-1.954036e+00	8.768422e-01	-1.706288e+00	-2.807180e+00	1.100892e+00
1.670000e-01	-1.966402e+00	8.826721e-01	-1.715686e+00	-2.824245e+00	1.108559e+00
1.680000e-01	-1.978563e+00	8.883933e-01	-1.724919e+00	-2.841023e+00	1.116104e+00
1.690000e-01	-1.990505e+00	8.939933e-01	-1.733984e+00	-2.857497e+00	1.123513e+00
1.700000e-01	-2.002231e+00	8.994689e-01	-1.742896e+00	-2.873679e+00	1.130783e+00
1.710000e-01	-2.013726e+00	9.048080e-01	-1.751650e+00	-2.889551e+00	1.137901e+00
1.720000e-01	-2.025009e+00	9.100168e-01	-1.760269e+00	-2.905144e+00	1.144875e+00
1.730000e-01	-2.036070e+00	9.150980e-01	-1.768737e+00	-2.920438e+00	1.151701e+00
1.740000e-01	-2.046919e+00	9.200641e-01	-1.777060e+00	-2.935449e+00	1.158389e+00
1.750000e-01	-2.057533e+00	9.249122e-01	-1.785209e+00	-2.950137e+00	1.164929e+00
1.760000e-01	-2.067927e+00	9.296474e-01	-1.793200e+00	-2.964527e+00	1.171327e+00
1.770000e-01	-2.078091e+00	9.342594e-01	-1.801030e+00	-2.978606e+00	1.177576e+00
1.780000e-01	-2.088030e+00	9.387456e-01	-1.808708e+00	-2.992384e+00	1.183676e+00
1.790000e-01	-2.097758e+00	9.431026e-01	-1.816255e+00	-3.005885e+00	1.189630e+00
1.800000e-01	-2.107277e+00	9.473242e-01	-1.823682e+00	-3.019117e+00	1.195436e+00
1.810000e-01	-2.116611e+00	9.514089e-01	-1.831023e+00	-3.032123e+00	1.201099e+00
1.820000e-01	-2.125760e+00	9.553531e-01	-1.838284e+00	-3.044902e+00	1.206618e+00
1.830000e-01	-2.134741e+00	9.591551e-01	-1.845492e+00	-3.057487e+00	1.211995e+00
1.840000e-01	-2.143540e+00	9.628067e-01	-1.852636e+00	-3.069858e+00	1.217222e+00
1.850000e-01	-2.152167e+00	9.663107e-01	-1.859725e+00	-3.082029e+00	1.222304e+00
1.860000e-01	-2.160620e+00	9.696695e-01	-1.866757e+00	-3.093998e+00	1.227241e+00
1.870000e-01	-2.168909e+00	9.728861e-01	-1.873740e+00	-3.105778e+00	1.232039e+00
1.880000e-01	-2.177042e+00	9.759632e-01	-1.880681e+00	-3.117382e+00	1.236701e+00
1.890000e-01	-2.185017e+00	9.788984e-01	-1.887580e+00	-3.128807e+00	1.241227e+00
1.900000e-01	-2.192829e+00	9.816934e-01	-1.894424e+00	-3.140042e+00	1.245617e+00
1.910000e-01	-2.200464e+00	9.843482e-01	-1.901196e+00	-3.151062e+00	1.249866e+00
1.920000e-01	-2.207976e+00	9.868906e-01	-1.907935e+00	-3.161943e+00	1.254008e+00
1.930000e-01	-2.215286e+00	9.892938e-01	-1.914567e+00	-3.172570e+00	1.258003e+00
1.940000e-01	-2.222401e+00	9.915619e-01	-1.921094e+00	-3.182948e+00	1.261854e+00
1.950000e-01	-2.229311e+00	9.936905e-01	-1.927506e+00	-3.193064e+00	1.265559e+00
1.960000e-01	-2.236021e+00	9.956846e-01	-1.933801e+00	-3.202921e+00	1.269120e+00
1.970000e-01	-2.242525e+00	9.975468e-01	-1.939973e+00	-3.212511e+00	1.272539e+00
1.980000e-01	-2.248854e+00	9.992924e-01	-1.946043e+00	-3.221875e+00	1.275832e+00
1.990000e-01	-2.254963e+00	1.000907e+00	-1.951968e+00	-3.230947e+00	1.278979e+00
2.000000e-01	-2.260979e+00	1.002451e+00	-1.957849e+00	-3.239904e+00	1.282055e+00
2.010000e-01	-2.266953e+00	1.003958e+00	-1.963719e+00	-3.248812e+00	1.285094e+00
2.020000e-01	-2.272903e+00	1.005443e+00	-1.969588e+00	-3.257697e+00	1.288110e+00
2.030000e-01	-2.278856e+00	1.006919e+00	-1.975479e+00	-3.266595e+00	1.291116e+00
2.040000e-01	-2.284821e+00	1.008390e+00	-1.981403e+00	-3.275523e+00	1.294119e+00
2.050000e-01	-2.290853e+00	1.009876e+00	-1.987410e+00	-3.284558e+00	1.297147e+00
2.060000e-01	-2.296884e+00	1.011348e+00	-1.993446e+00	-3.293607e+00	1.300161e+00
2.070000e-01	-2.302924e+00	1.012810e+00	-1.999516e+00	-3.302682e+00	1.303166e+00
2.080000e-01	-2.308995e+00	1.014275e+00	-2.005641e+00	-3.311815e+00	1.306174e+00
2.090000e-01	-2.315101e+00	1.015752e+00	-2.011817e+00	-3.321010e+00	1.309193e+00
2.100000e-01	-2.321234e+00	1.017241e+00	-2.018027e+00	-3.330248e+00	1.312220e+00
2.110000e-01	-2.327392e+00	1.018747e+00	-2.024267e+00	-3.339525e+00	1.315258e+00
2.120000e-01	-2.333576e+00	1.020276e+00	-2.030536e+00	-3.348845e+00	1.318308e+00
2.130000e-01	-2.339775e+00	1.021827e+00	-2.036818e+00	-3.358184e+00	1.321366e+00
2.140000e-01	-2.345988e+00	1.023402e+00	-2.043109e+00	-3.367543e+00	1.324434e+00
2.150000e-01	-2.352203e+00	1.025001e+00	-2.049390e+00	-3.376898e+00	1.327507e+00
2.160000e-01	-2.358409e+00	1.026626e+00	-2.055645e+00	-3.386232e+00	1.330587e+00
2.170000e-01	-2.364632e+00	1.028296e+00	-2.061885e+00	-3.395575e+00	1.333690e+00
2.180000e-01	-2.370875e+00	1.030017e+00	-2.068113e+00	-3.404931e+00	1.336819e+00
2.190000e-01	-2.377153e+00	1.031791e+00	-2.074340e+00	-3.414322e+00	1.339983e+00
2.200000e-01	-2.383471e+00	1.033624e+00	-2.080570e+00	-3.423757e+00	1.343186e+00
2.210000e-01	-2.389837e+00	1.035517e+00	-2.086808e+00	-3.433242e+00	1.346433e+00
2.220000e-01	-2.396266e+00	1.037479e+00	-2.093063e+00	-3.442797e+00	1.349734e+00
2.230000e-01	-2.402756e+00	1.039508e+00	-2.099335e+00	-3.452423e+00	1.353088e+00
2.240000e-01	-2.409300e+00	1.041600e+00	-2.105620e+00	-3.462110e+00	1.356491e+00
2.250000e-01	-2.415905e+00	1.043757e+00	-2.111923e+00	-3.471867e+00	1.359943e+00
2.260000e-01	-2.422553e+00	1.045973e+00	-2.118232e+00	-3.481669e+00	1.363437e+00
2.270000e-01	-2.429222e+00	1.048237e+00	-2.124526e+00	-3.491485e+00	1.366959e+00
2.280000e-01	-2.435892e+00	1.050540e+00	-2.130790e+00	-3.501287e+00	1.370497e+00
2.290000e-01	-2.442551e+00	1.052874e+00	-2.137018e+00	-3.511059e+00	1.374042e+00
2.300000e-01	-2.449172e+00	1.055224e+00	-2.143187e+00	-3.520766e+00	1.377578e+00
2.310000e-01	-2.455747e+00	1.057582e+00	-2.149297e+00	-3.530395e+00	1.381099e+00
2.320000e-01	-2.462259e+00	1.059935e+00	-2.155336e+00	-3.539927e+00	1.384591e+00
2.330000e-01	-2.468702e+00	1.062278e+00	-2.161304e+00	-3.549354e+00	1.388050e+00
2.340000e-01	-2.475088e+00	1.064611e+00	-2.167217e+00	-3.558697e+00	1.391480e+00
2.350000e-01	-2.481421e+00	1.066927e+00	-2.173086e+00	-3.567964e+00	1.394878e+00
2.360000e-01	-2.487707e+00	1.069226e+00	-2.178916e+00	-3.577165e+00	1.398249e+00
2.370000e-01	-2.493955e+00	1.071511e+00	-2.184715e+00	-3.586312e+00	1.401597e+00
2.380000e-01	-2.500185e+00	1.073794e+00	-2.190499e+00	-3.595435e+00	1.404936e+00
2.390000e-01	-2.506408e+00	1.076081e+00	-2.196272e+00	-3.604544e+00	1.408272e+00
2.400000e-01	-2.512615e+00	1.078363e+00	-2.202030e+00	-3.613629e+00	1.411600e+00
2.410000e-01	-2.518802e+00	1.080641e+00	-2.207767e+00	-3.622685e+00	1.414919e+00
2.420000e-01	-2.524949e+00	1.082901e+00	-2.213464e+00	-3.631681e+00	1.418216e+00
2.430000e-01	-2.531035e+00	1.085135e+00	-2.219108e+00	-3.640589e+00	1.421481e+00
2.440000e-01	-2.537079e+00	1.087349e+00	-2.224713e+00	-3.649435e+00	1.424722e+00
2.450000e-01	-2.543085e+00	1.089543e+00	-2.230285e+00	-3.658228e+00	1.427943e+00
2.460000e-01	-2.549068e+00	1.091719e+00	-2.235837e+00	-3.666986e+00	1.431149e+00
2.470000e-01	-2.555037e+00	1.093880e+00	-2.241379e+00	-3.675727e+00	1.434348e+00
2.480000e-01	-2.560973e+00	1.096013e+00	-2.246897e+00	-3.684422e+00	1.437524e+00
2.490000e-01	-2.566867e+00	1.098112e+00	-2.252389e+00	-3.693061e+00	1.440672e+00
2.500000e-01	-2.572712e+00	1.100170e+00	-2.257854e+00	-3.701638e+00	1.443785e+00
2.510000e-01	-2.578514e+00	1.102185e+00	-2.263300e+00	-3.710164e+00	1.446864e+00
2.520000e-01	-2.584269e+00	1.104151e+00	-2.268727e+00	-3.718632e+00	1.449905e+00
2.530000e-01	-2.589990e+00	1.106075e+00	-2.274146e+00	-3.727063e+00	1.452918e+00
2.540000e-01	-2.595697e+00	1.107971e+00	-2.279568e+00	-3.735481e+00	1.455913e+00
2.550000e-01	-2.601401e+00	1.109846e+00	-2.285004e+00	-3.743903e+00	1.458899e+00
2.560000e-01	-2.607100e+00	1.111698e+00	-2.290453e+00	-3.752326e+00	1.461873e+00
2.570000e-01	-2.612795e+00	1.113525e+00	-2.295916e+00	-3.760753e+00	1.464837e+00
2.580000e-01	-2.618493e+00	1.115333e+00	-2.301395e+00	-3.769190e+00	1.467796e+00
2.590000e-01	-2.624190e+00	1.117125e+00	-2.306884e+00	-3.777632e+00	1.470748e+00
2.600000e-01	-2.629897e+00	1.118908e+00	-2.312392e+00	-3.786093e+00	1.473701e+00
2.610000e-01	-2.635618e+00	1.120687e+00	-2.317921e+00	-3.794579e+00	1.476658e+00
2.620000e-01	-2.641355e+00	1.122462e+00	-2.323470e+00	-3.803090e+00	1.479620e+00
2.630000e-01	-2.647099e+00	1.124230e+00	-2.329032e+00	-3.811615e+00	1.482584e+00
2.640000e-01	-2.652869e+00	1.126005e+00	-2.334619e+00	-3.820179e+00	1.485560e+00
2.650000e-01	-2.658622e+00	1.127769e+00	-2.340196e+00	-3.828720e+00	1.488524e+00
2.660000e-01	-2.664355e+00	1.129524e+00	-2.345759e+00	-3.837234e+00	1.491476e+00
2.670000e-01	-2.670067e+00	1.131271e+00	-2.351304e+00	-3.845719e+00	1.494415e+00
2.680000e-01	-2.675767e+00	1.133019e+00	-2.356833e+00	-3.854184e+00	1.497351e+00
2.690000e-01	-2.681454e+00	1.134771e+00	-2.362343e+00	-3.862625e+00	1.500282e+00
2.700000e-01	-2.687141e+00	1.136537e+00	-2.367845e+00	-3.871064e+00	1.503219e+00
2.710000e-01	-2.692842e+00	1.138326e+00	-2.373346e+00	-3.879515e+00	1.506169e+00
2.720000e-01	-2.698590e+00	1.140152e+00	-2.378873e+00	-3.888026e+00	1.509153e+00
2.730000e-01	-2.704390e+00	1.142017e+00	-2.384431e+00	-3.896605e+00	1.512174e+00
2.740000e-01	-2.710250e+00	1.143925e+00	-2.390025e+00	-3.905262e+00	1.515237e+00
2.750000e-01	-2.716166e+00	1.145881e+00	-2.395650e+00	-3.913990e+00	1.518341e+00
2.760000e-01	-2.722150e+00	1.147889e+00	-2.401315e+00	-3.922807e+00	1.521493e+00
2.770000e-01	-2.728191e+00	1.149944e+00	-2.407012e+00	-3.931697e+00	1.524685e+00
2.780000e-01	-2.734268e+00	1.152032e+00	-2.412727e+00	-3.940631e+00	1.527904e+00
2.790000e-01	-2.740368e+00	1.154148e+00	-2.418449e+00	-3.949593e+00	1.531144e+00
2.800000e-01	-2.746479e+00	1.156285e+00	-2.424169e+00	-3.958564e+00	1.534395e+00
2.810000e-01	-2.752594e+00	1.158440e+00	-2.429882e+00	-3.967535e+00	1.537653e+00
2.820000e-01	-2.758703e+00	1.160605e+00	-2.435582e+00	-3.976493e+00	1.540912e+00
2.830000e-01	-2.764801e+00	1.162777e+00	-2.441264e+00	-3.985433e+00	1.544169e+00
2.840000e-01	-2.770904e+00	1.164961e+00	-2.446941e+00	-3.994374e+00	1.547433e+00
2.850000e-01	-2.777024e+00	1.167168e+00	-2.452622e+00	-4.003335e+00	1.550713e+00
2.860000e-01	-2.783155e+00	1.169392e+00	-2.458301e+00	-4.012305e+00	1.554005e+00
2.870000e-01	-2.789319e+00	1.171642e+00	-2.463997e+00	-4.021317e+00	1.557320e+00
2.880000e-01	-2.795519e+00	1.173918e+00	-2.469715e+00	-4.030376e+00	1.560661e+00
2.890000e-01	-2.801768e+00	1.176224e+00	-2.475465e+00	-4.039500e+00	1.564035e+00
2.900000e-01	-2.808061e+00	1.178558e+00	-2.481244e+00	-4.048683e+00	1.567439e+00
2.910000e-01	-2.814398e+00	1.180919e+00	-2.487054e+00	-4.057925e+00	1.570871e+00
2.920000e-01	-2.820762e+00	1.183298e+00	-2.492883e+00	-4.067203e+00	1.574321e+00
2.930000e-01	-2.827152e+00	1.185690e+00	-2.498733e+00	-4.076518e+00	1.577786e+00
2.940000e-01	-2.833542e+00	1.188081e+00	-2.504584e+00	-4.085835e+00	1.581250e+00
2.950000e-01	-2.839921e+00	1.190462e+00	-2.510428e+00	-4.095135e+00	1.584707e+00
2.960000e-01	-2.846279e+00	1.192831e+00	-2.516257e+00	-4.104408e+00	1.588151e+00
2.970000e-01	-2.852613e+00	1.195187e+00	-2.522066e+00	-4.113646e+00	1.591579e+00
2.980000e-01	-2.858949e+00	1.197539e+00	-2.527878e+00	-4.122888e+00	1.595010e+00
2.990000e-01	-2.865292e+00	1.199893e+00	-2.533696e+00	-4.132140e+00	1.598445e+00
3.000000e-01	-2.871644e+00	1.202246e+00	-2.539520e+00	-4.141404e+00	1.601884e+00
3.010000e-01	-2.878013e+00	1.204603e+00	-2.545359e+00	-4.150693e+00	1.605334e+00
3.020000e-01	-2.884409e+00	1.206970e+00	-2.551220e+00	-4.160019e+00	1.608799e+00
3.030000e-01	-2.890825e+00	1.209340e+00	-2.557101e+00	-4.169376e+00	1.612275e+00
3.040000e-01	-2.897248e+00	1.211707e+00	-2.562989e+00	-4.178742e+00	1.615753e+00
3.050000e-01	-2.903668e+00	1.214065e+00	-2.568878e+00	-4.188107e+00	1.619229e+00
3.060000e-01	-2.910082e+00	1.216414e+00	-2.574765e+00	-4.197464e+00	1.622699e+00
3.070000e-01	-2.916490e+00	1.218754e+00	-2.580652e+00	-4.206816e+00	1.626163e+00
3.080000e-01	-2.922886e+00	1.221081e+00	-2.586534e+00	-4.216153e+00	1.629619e+00
3.090000e-01	-2.929265e+00	1.223391e+00	-2.592407e+00	-4.225468e+00	1.633061e+00
3.100000e-01	-2.935622e+00	1.225686e+00	-2.598266e+00	-4.234756e+00	1.636489e+00
3.110000e-01	-2.941955e+00	1.227965e+00	-2.604107e+00	-4.244008e+00	1.639901e+00
3.120000e-01	-2.948261e+00	1.230231e+00	-2.609927e+00	-4.253224e+00	1.643297e+00
3.130000e-01	-2.954531e+00	1.232479e+00	-2.615718e+00	-4.262391e+00	1.646672e+00
3.140000e-01	-2.960762e+00	1.234707e+00	-2.621475e+00	-4.271500e+00	1.650025e+00
3.150000e-01	-2.966962e+00	1.236918e+00	-2.627205e+00	-4.280564e+00	1.653360e+00
3.160000e-01	-2.973125e+00	1.239116e+00	-2.632900e+00	-4.289575e+00	1.656675e+00
3.170000e-01	-2.979266e+00	1.241305e+00	-2.638575e+00	-4.298554e+00	1.659979e+00
3.180000e-01	-2.985380e+00	1.243483e+00	-2.644227e+00	-4.307493e+00	1.663266e+00
3.190000e-01	-2.991469e+00	1.245648e+00	-2.649857e+00	-4.316397e+00	1.666540e+00
3.200000e-01	-2.997520e+00	1.247796e+00	-2.655455e+00	-4.325248e+00	1.669793e+00
3.210000e-01	-3.003536e+00	1.249931e+00	-2.661021e+00	-4.334046e+00	1.673025e+00
3.220000e-01	-3.009531e+00	1.252065e+00	-2.666568e+00	-4.342815e+00	1.676247e+00
3.230000e-01	-3.015509e+00	1.254196e+00	-2.672097e+00	-4.351558e+00	1.679461e+00
3.240000e-01	-3.021473e+00	1.256327e+00	-2.677608e+00	-4.360277e+00	1.682668e+00
3.250000e-01	-3.027421e+00	1.258459e+00	-2.683101e+00	-4.368972e+00	1.685871e+00
3.260000e-01	-3.033357e+00	1.260600e+00	-2.688574e+00	-4.377644e+00	1.689070e+00
3.270000e-01	-3.039261e+00	1.262739e+00	-2.694010e+00	-4.386266e+00	1.692255e+00
3.280000e-01	-3.045121e+00	1.264873e+00	-2.699401e+00	-4.394821e+00	1.695420e+00
3.290000e-01	-3.050947e+00	1.267003e+00	-2.704753e+00	-4.403324e+00	1.698570e+00
3.300000e-01	-3.056755e+00	1.269140e+00	-2.710076e+00	-4.411793e+00	1.701717e+00
3.310000e-01	-3.062552e+00	1.271291e+00	-2.715374e+00	-4.420239e+00	1.704865e+00
3.320000e-01	-3.068342e+00	1.273460e+00	-2.720649e+00	-4.428666e+00	1.708017e+00
3.330000e-01	-3.074130e+00	1.275647e+00	-2.725909e+00	-4.437085e+00	1.711176e+00
3.340000e-01	-3.079921e+00	1.277854e+00	-2.731155e+00	-4.445498e+00	1.714343e+00
3.350000e-01	-3.085714e+00	1.280079e+00	-2.736389e+00	-4.453908e+00	1.717520e+00
3.360000e-01	-3.091502e+00	1.282321e+00	-2.741605e+00	-4.462305e+00	1.720699e+00
3.370000e-01	-3.097284e+00	1.284575e+00	-2.746806e+00	-4.470687e+00	1.723881e+00
3.380000e-01	-3.103066e+00	1.286844e+00	-2.751997e+00	-4.479064e+00	1.727067e+00
3.390000e-01	-3.108850e+00	1.289126e+00	-2.757182e+00	-4.487441e+00	1.730259e+00
3.400000e-01	-3.114644e+00	1.291426e+00	-2.762364e+00	-4.495827e+00	1.733462e+00
3.410000e-01	-3.120443e+00	1.293741e+00	-2.767539e+00	-4.504212e+00	1.736673e+00
3.420000e-01	-3.126251e+00	1.296074e+00	-2.772713e+00	-4.512608e+00	1.739894e+00
3.430000e-01	-3.132067e+00	1.298419e+00	-2.777887e+00	-4.521010e+00	1.743123e+00
3.440000e-01	-3.137881e+00	1.300768e+00	-2.783054e+00	-4.529408e+00	1.746354e+00
3.450000e-01	-3.143686e+00	1.303115e+00	-2.788209e+00	-4.537790e+00	1.749581e+00
3.460000e-01	-3.149472e+00	1.305455e+00	-2.793347e+00	-4.546145e+00	1.752798e+00
3.470000e-01	-3.155235e+00	1.307783e+00	-2.798466e+00	-4.554468e+00	1.756002e+00
3.480000e-01	-3.160970e+00	1.310092e+00	-2.803566e+00	-4.562753e+00	1.759187e+00
3.490000e-01	-3.166669e+00	1.312373e+00	-2.808643e+00	-4.570990e+00	1.762348e+00
3.500000e-01	-3.172327e+00	1.314622e+00	-2.813694e+00	-4.579174e+00	1.765480e+00
3.510000e-01	-3.177954e+00	1.316847e+00	-2.818722e+00	-4.587315e+00	1.768593e+00
3.520000e-01	-3.183546e+00	1.319048e+00	-2.823729e+00	-4.595411e+00	1.771682e+00
3.530000e-01	-3.189105e+00	1.321224e+00	-2.828712e+00	-4.603461e+00	1.774749e+00
3.540000e-01	-3.194631e+00	1.323377e+00	-2.833670e+00	-4.611466e+00	1.777796e+00
3.550000e-01	-3.200119e+00	1.325505e+00	-2.838598e+00	-4.619418e+00	1.780820e+00
3.560000e-01	-3.205557e+00	1.327603e+00	-2.843486e+00	-4.627300e+00	1.783814e+00
3.570000e-01	-3.210954e+00	1.329675e+00	-2.848343e+00	-4.635126e+00	1.786783e+00
3.580000e-01	-3.216305e+00	1.331712e+00	-2.853170e+00	-4.642890e+00	1.789720e+00
3.590000e-01	-3.221617e+00	1.333711e+00	-2.857976e+00	-4.650605e+00	1.792629e+00
3.600000e-01	-3.226884e+00	1.335671e+00	-2.862757e+00	-4.658262e+00	1.795505e+00
3.610000e-01	-3.232108e+00	1.337592e+00	-2.867513e+00	-4.665865e+00	1.798352e+00
3.620000e-01	-3.237297e+00	1.339479e+00	-2.872252e+00	-4.673423e+00	1.801171e+00
3.630000e-01	-3.242448e+00	1.341325e+00	-2.876977e+00	-4.680937e+00	1.803960e+00
3.640000e-01	-3.247563e+00	1.343128e+00	-2.881691e+00	-4.688408e+00	1.806718e+00
3.650000e-01	-3.252622e+00	1.344879e+00	-2.886378e+00	-4.695811e+00	1.809433e+00