# Forces     
# CofR       : (0.000000e+00 0.000000e+00 0.000000e+00)
# Time       forces(pressure viscous porous) moment(pressure viscous porous)
1.000000e-03	((1.373917e+00 -2.126143e+00 -1.217898e-04) (6.102681e-03 -3.118081e-05 5.552166e-07) (0.000000e+00 0.000000e+00 0.000000e+00)) ((6.509118e-05 1.495940e-05 -5.638300e-01) (-1.801319e-07 -1.206693e-06 1.349182e-04) (0.000000e+00 0.000000e+00 0.000000e+00))
2.000000e-03	((9.270392e+00 -1.476175e+01 -7.138453e-04) (7.661131e-03 1.314475e-03 5.192864e-06) (0.000000e+00 0.000000e+00 0.000000e+00)) ((-9.188472e-04 -4.257070e-04 -3.680866e+00) (-4.830103e-07 -4.704363e-06 7.066990e-04) (0.000000e+00 0.000000e+00 0.000000e+00))
3.000000e-03	((1.583292e+01 -2.647050e+01 -7.744073e-04) (9.794511e-03 2.471411e-03 6.905745e-06) (0.000000e+00 0.000000e+00 0.000000e+00)) ((-1.478788e-03 -1.208678e-03 -6.291698e+00) (-4.276806e-06 2.324870e-06 1.181928e-03) (0.000000e+00 0.000000e+00 0.000000e+00))
4.000000e-03	((1.739634e+01 -3.051551e+01 -1.349061e-03) (1.301270e-02 4.123380e-03 5.031034e-06) (0.000000e+00 0.000000e+00 0.000000e+00)) ((1.358615e-03 -2.077597e-03 -6.933428e+00) (-5.820222e-06 3.226275e-06 1.896672e-03) (0.000000e+00 0.000000e+00 0.000000e+00))
5.000000e-03	((1.736090e+01 -3.266565e+01 -2.630756e-03) (1.599838e-02 5.405846e-03 1.113188e-05) (0.000000e+00 0.000000e+00 0.000000e+00)) ((1.436183e-02 7.890430e-04 -7.003475e+00) (-3.173587e-06 1.893844e-05 2.529820e-03) (0.000000e+00 0.000000e+00 0.000000e+00))
6.000000e-03	((1.744565e+01 -3.557682e+01 -5.741735e-03) (1.821478e-02 6.482095e-03 3.531661e-06) (0.000000e+00 0.000000e+00 0.000000e+00)) ((5.686859e-02 1.579335e-02 -7.210205e+00) (-5.151178e-06 2.321699e-05 3.030281e-03) (0.000000e+00 0.000000e+00 0.000000e+00))
7.000000e-03	((1.832818e+01 -4.003058e+01 -7.721373e-03) (1.988977e-02 7.174036e-03 -4.497477e-06) (0.000000e+00 0.000000e+00 0.000000e+00)) ((8.281187e-02 2.659426e-02 -7.783164e+00) (-2.166344e-06 2.151604e-05 3.364809e-03) (0.000000e+00 0.000000e+00 0.000000e+00))
8.000000e-03	((2.059307e+01 -4.673501e+01 -6.795804e-03) (2.123630e-02 7.678739e-03 -2.130353e-05) (0.000000e+00 0.000000e+00 0.000000e+00)) ((9.513786e-02 3.071167e-02 -8.937332e+00) (-1.956674e-06 2.474059e-05 3.617602e-03) (0.000000e+00 0.000000e+00 0.000000e+00))
9.000000e-03	((2.404230e+01 -5.529610e+01 -3.726370e-03) (2.248142e-02 8.052248e-03 -3.351208e-05) (0.000000e+00 0.000000e+00 0.000000e+00)) ((8.622538e-02 2.571631e-02 -1.056377e+01) (-1.598494e-06 2.513155e-05 3.817658e-03) (0.000000e+00 0.000000e+00 0.000000e+00))
1.000000e-02	((2.786047e+01 -6.432215e+01 -6.709130e-04) (2.369964e-02 8.290577e-03 -4.220233e-05) (0.000000e+00 0.000000e+00 0.000000e+00)) ((6.373689e-02 1.720429e-02 -1.231365e+01) (-3.303423e-06 2.419460e-05 3.988426e-03) (0.000000e+00 0.000000e+00 0.000000e+00))
1.100000e-02	((3.126138e+01 -7.263857e+01 1.740569e-03) (2.491989e-02 8.492464e-03 -3.973697e-05) (0.000000e+00 0.000000e+00 0.000000e+00)) ((4.041493e-02 1.058364e-02 -1.388212e+01) (-3.940730e-06 2.058101e-05 4.152087e-03) (0.000000e+00 0.000000e+00 0.000000e+00))
1.200000e-02	((3.462470e+01 -8.088243e+01 1.303942e-03) (2.616678e-02 8.646367e-03 -3.732079e-05) (0.000000e+00 0.000000e+00 0.000000e+00)) ((2.493879e-02 1.074865e-02 -1.542009e+01) (-5.048322e-06 1.578974e-05 4.308396e-03) (0.000000e+00 0.000000e+00 0.000000e+00))
1.300000e-02	((3.773498e+01 -8.875068e+01 5.019873e-04) (2.738224e-02 8.797256e-03 -4.027424e-05) (0.000000e+00 0.000000e+00 0.000000e+00)) ((1.601630e-02 1.257287e-02 -1.684772e+01) (-7.427445e-06 1.381327e-05 4.465897e-03) (0.000000e+00 0.000000e+00 0.000000e+00))
1.400000e-02	((4.086858e+01 -9.681006e+01 -2.041691e-03) (2.859268e-02 8.972702e-03 -4.703406e-05) (0.000000e+00 0.000000e+00 0.000000e+00)) ((1.758422e-02 1.598105e-02 -1.829119e+01) (-7.870185e-06 1.426847e-05 4.631599e-03) (0.000000e+00 0.000000e+00 0.000000e+00))
1.500000e-02	((4.443428e+01 -1.056724e+02 -2.659158e-03) (2.982346e-02 9.177840e-03 -5.697767e-05) (0.000000e+00 0.000000e+00 0.000000e+00)) ((5.657545e-03 1.292959e-02 -1.991285e+01) (-7.384812e-06 1.751657e-05 4.807238e-03) (0.000000e+00 0.000000e+00 0.000000e+00))
1.600000e-02	((4.888472e+01 -1.162645e+02 -5.279289e-03) (3.109735e-02 9.421031e-03 -6.159934e-05) (0.000000e+00 0.000000e+00 0.000000e+00)) ((8.591260e-03 1.423621e-02 -2.190595e+01) (-6.762599e-06 1.912564e-05 4.993780e-03) (0.000000e+00 0.000000e+00 0.000000e+00))
1.700000e-02	((5.425113e+01 -1.288650e+02 -4.731523e-03) (3.241541e-02 9.674396e-03 -6.506417e-05) (0.000000e+00 0.000000e+00 0.000000e+00)) ((2.963450e-02 1.843919e-02 -2.429975e+01) (-5.585322e-06 1.916979e-05 5.184978e-03) (0.000000e+00 0.000000e+00 0.000000e+00))
1.800000e-02	((6.035983e+01 -1.433766e+02 -6.319391e-03) (3.380127e-02 9.928146e-03 -6.647607e-05) (0.000000e+00 0.000000e+00 0.000000e+00)) ((5.736417e-02 2.472015e-02 -2.703720e+01) (-4.998516e-06 1.718572e-05 5.379337e-03) (0.000000e+00 0.000000e+00 0.000000e+00))
1.900000e-02	((6.673170e+01 -1.589939e+02 -7.181516e-03) (3.522336e-02 1.016249e-02 -6.613779e-05) (0.000000e+00 0.000000e+00 0.000000e+00)) ((6.529210e-02 2.481007e-02 -2.992357e+01) (-3.736059e-06 1.565185e-05 5.571125e-03) (0.000000e+00 0.000000e+00 0.000000e+00))
2.000000e-02	((7.292052e+01 -1.748059e+02 -6.910121e-03) (3.662117e-02 1.035919e-02 -6.939950e-05) (0.000000e+00 0.000000e+00 0.000000e+00)) ((4.812951e-02 1.538295e-02 -3.276751e+01) (-1.791578e-06 1.341520e-05 5.752162e-03) (0.000000e+00 0.000000e+00 0.000000e+00))
2.100000e-02	((7.871047e+01 -1.902507e+02 -5.447095e-03) (3.796762e-02 1.052399e-02 -6.945087e-05) (0.000000e+00 0.000000e+00 0.000000e+00)) ((4.483404e-02 1.065999e-02 -3.547349e+01) (-1.103351e-06 1.077274e-05 5.925262e-03) (0.000000e+00 0.000000e+00 0.000000e+00))
2.200000e-02	((8.401842e+01 -2.050684e+02 -3.457893e-03) (3.924431e-02 1.067286e-02 -6.926709e-05) (0.000000e+00 0.000000e+00 0.000000e+00)) ((4.298215e-02 8.854331e-03 -3.800671e+01) (1.000672e-07 8.007789e-06 6.092041e-03) (0.000000e+00 0.000000e+00 0.000000e+00))
2.300000e-02	((8.903937e+01 -2.194272e+02 -2.036751e-03) (4.045921e-02 1.082404e-02 -6.498283e-05) (0.000000e+00 0.000000e+00 0.000000e+00)) ((4.786598e-02 9.244150e-03 -4.043476e+01) (1.855418e-06 5.454382e-06 6.259136e-03) (0.000000e+00 0.000000e+00 0.000000e+00))
2.400000e-02	((9.438882e+01 -2.344876e+02 -2.928466e-03) (4.163406e-02 1.099251e-02 -6.035306e-05) (0.000000e+00 0.000000e+00 0.000000e+00)) ((4.287072e-02 4.434461e-03 -4.302513e+01) (3.546022e-06 2.118922e-06 6.429371e-03) (0.000000e+00 0.000000e+00 0.000000e+00))
2.500000e-02	((1.004710e+02 -2.510121e+02 -4.172759e-03) (4.279981e-02 1.118279e-02 -6.230035e-05) (0.000000e+00 0.000000e+00 0.000000e+00)) ((1.763822e-02 -5.948713e-03 -4.593853e+01) (4.194371e-06 1.686159e-06 6.607713e-03) (0.000000e+00 0.000000e+00 0.000000e+00))
2.600000e-02	((1.074649e+02 -2.693657e+02 -4.344916e-03) (4.393394e-02 1.136677e-02 -6.429654e-05) (0.000000e+00 0.000000e+00 0.000000e+00)) ((-1.119526e-02 -1.730586e-02 -4.924725e+01) (4.586007e-06 9.046325e-07 6.782544e-03) (0.000000e+00 0.000000e+00 0.000000e+00))
2.700000e-02	((1.154315e+02 -2.897526e+02 -2.784721e-03) (4.504094e-02 1.151885e-02 -6.815235e-05) (0.000000e+00 0.000000e+00 0.000000e+00)) ((-2.109706e-02 -2.179221e-02 -5.297285e+01) (4.672710e-06 3.135616e-06 6.951496e-03) (0.000000e+00 0.000000e+00 0.000000e+00))
2.800000e-02	((1.242201e+02 -3.119829e+02 -2.818038e-04) (4.613325e-02 1.165024e-02 -7.150041e-05) (0.000000e+00 0.000000e+00 0.000000e+00)) ((-3.185692e-02 -2.643653e-02 -5.705811e+01) (2.893501e-06 4.309530e-06 7.114011e-03) (0.000000e+00 0.000000e+00 0.000000e+00))
2.900000e-02	((1.334509e+02 -3.353944e+02 1.782962e-03) (4.719093e-02 1.174043e-02 -7.358389e-05) (0.000000e+00 0.000000e+00 0.000000e+00)) ((-2.685040e-02 -2.517971e-02 -6.133765e+01) (2.143738e-06 4.550113e-06 7.269071e-03) (0.000000e+00 0.000000e+00 0.000000e+00))
3.000000e-02	((1.427259e+02 -3.591565e+02 4.693162e-03) (4.818575e-02 1.180343e-02 -7.487693e-05) (0.000000e+00 0.000000e+00 0.000000e+00)) ((-4.242460e-02 -2.810601e-02 -6.563840e+01) (2.298026e-07 4.783633e-06 7.414222e-03) (0.000000e+00 0.000000e+00 0.000000e+00))
3.100000e-02	((1.519015e+02 -3.828863e+02 6.969775e-03) (4.901367e-02 1.179754e-02 -7.344910e-05) (0.000000e+00 0.000000e+00 0.000000e+00)) ((-3.839079e-02 -2.243713e-02 -6.989543e+01) (5.776917e-07 4.239937e-06 7.537851e-03) (0.000000e+00 0.000000e+00 0.000000e+00))
3.200000e-02	((1.610737e+02 -4.066912e+02 7.891478e-03) (4.963969e-02 1.175880e-02 -7.618625e-05) (0.000000e+00 0.000000e+00 0.000000e+00)) ((-5.751307e-02 -2.547707e-02 -7.415617e+01) (1.266924e-07 6.089114e-06 7.643810e-03) (0.000000e+00 0.000000e+00 0.000000e+00))
3.300000e-02	((1.704860e+02 -4.309036e+02 8.208524e-03) (5.030357e-02 1.175734e-02 -6.224683e-05) (0.000000e+00 0.000000e+00 0.000000e+00)) ((-5.676250e-02 -2.431377e-02 -7.852025e+01) (1.413832e-06 -3.426511e-06 7.761227e-03) (0.000000e+00 0.000000e+00 0.000000e+00))
3.400000e-02	((1.803201e+02 -4.557465e+02 9.895865e-03) (5.102757e-02 1.181248e-02 -5.865127e-05) (0.000000e+00 0.000000e+00 0.000000e+00)) ((-8.190032e-02 -3.351463e-02 -8.306460e+01) (6.578164e-07 -8.012957e-06 7.893639e-03) (0.000000e+00 0.000000e+00 0.000000e+00))
3.500000e-02	((1.907692e+02 -4.817536e+02 1.046239e-02) (5.192018e-02 1.192615e-02 -5.604331e-05) (0.000000e+00 0.000000e+00 0.000000e+00)) ((-7.321641e-02 -3.070155e-02 -8.787623e+01) (6.866242e-07 -1.150082e-05 8.050666e-03) (0.000000e+00 0.000000e+00 0.000000e+00))
3.600000e-02	((2.017685e+02 -5.087771e+02 1.327015e-02) (5.283846e-02 1.209212e-02 -6.124714e-05) (0.000000e+00 0.000000e+00 0.000000e+00)) ((-1.066329e-01 -4.653537e-02 -9.292280e+01) (-5.546671e-07 -9.823800e-06 8.216149e-03) (0.000000e+00 0.000000e+00 0.000000e+00))
3.700000e-02	((2.132856e+02 -5.367825e+02 1.367892e-02) (5.380088e-02 1.227240e-02 -5.313843e-05) (0.000000e+00 0.000000e+00 0.000000e+00)) ((-1.283703e-01 -5.804602e-02 -9.818444e+01) (-1.937356e-07 -1.613005e-05 8.389083e-03) (0.000000e+00 0.000000e+00 0.000000e+00))
3.800000e-02	((2.252319e+02 -5.655572e+02 1.660823e-02) (5.482382e-02 1.248074e-02 -4.454681e-05) (0.000000e+00 0.000000e+00 0.000000e+00)) ((-1.350138e-01 -6.748966e-02 -1.036230e+02) (-2.767299e-06 -2.498810e-05 8.569411e-03) (0.000000e+00 0.000000e+00 0.000000e+00))
3.900000e-02	((2.374189e+02 -5.947832e+02 1.705873e-02) (5.597064e-02 1.270720e-02 -4.400127e-05) (0.000000e+00 0.000000e+00 0.000000e+00)) ((-1.250721e-01 -6.901333e-02 -1.091579e+02) (-2.458997e-06 -2.839478e-05 8.764788e-03) (0.000000e+00 0.000000e+00 0.000000e+00))
4.000000e-02	((2.499866e+02 -6.247346e+02 1.432600e-02) (5.719753e-02 1.295962e-02 -4.691711e-05) (0.000000e+00 0.000000e+00 0.000000e+00)) ((-1.322830e-01 -7.867345e-02 -1.148599e+02) (-4.228287e-06 -2.732673e-05 8.969303e-03) (0.000000e+00 0.000000e+00 0.000000e+00))
4.100000e-02	((2.629123e+02 -6.553294e+02 1.089813e-02) (5.848239e-02 1.323004e-02 -5.407957e-05) (0.000000e+00 0.000000e+00 0.000000e+00)) ((-1.274698e-01 -8.906862e-02 -1.207170e+02) (-3.579480e-06 -2.482301e-05 9.180657e-03) (0.000000e+00 0.000000e+00 0.000000e+00))
4.200000e-02	((2.760911e+02 -6.863326e+02 1.198084e-02) (5.984839e-02 1.353878e-02 -6.427092e-05) (0.000000e+00 0.000000e+00 0.000000e+00)) ((-1.674927e-01 -1.232573e-01 -1.266873e+02) (-4.945537e-06 -2.142884e-05 9.402191e-03) (0.000000e+00 0.000000e+00 0.000000e+00))
4.300000e-02	((2.895212e+02 -7.176016e+02 1.004127e-02) (6.124566e-02 1.387664e-02 -6.566456e-05) (0.000000e+00 0.000000e+00 0.000000e+00)) ((-1.624724e-01 -1.408613e-01 -1.327710e+02) (-4.933382e-06 -2.059271e-05 9.630205e-03) (0.000000e+00 0.000000e+00 0.000000e+00))
4.400000e-02	((3.029652e+02 -7.484908e+02 1.294818e-02) (6.268908e-02 1.424972e-02 -6.513990e-05) (0.000000e+00 0.000000e+00 0.000000e+00)) ((-1.255343e-01 -1.466394e-01 -1.388527e+02) (-7.170804e-06 -2.043225e-05 9.866775e-03) (0.000000e+00 0.000000e+00 0.000000e+00))
4.500000e-02	((3.163924e+02 -7.788942e+02 1.162849e-02) (6.418036e-02 1.465632e-02 -6.200490e-05) (0.000000e+00 0.000000e+00 0.000000e+00)) ((-6.367732e-02 -1.366085e-01 -1.449118e+02) (-7.460091e-06 -2.213778e-05 1.011176e-02) (0.000000e+00 0.000000e+00 0.000000e+00))
4.600000e-02	((3.299144e+02 -8.088490e+02 1.089179e-02) (6.573150e-02 1.509663e-02 -6.676801e-05) (0.000000e+00 0.000000e+00 0.000000e+00)) ((-4.604228e-03 -1.209700e-01 -1.509898e+02) (-9.172770e-06 -2.084690e-05 1.036548e-02) (0.000000e+00 0.000000e+00 0.000000e+00))
4.700000e-02	((3.434804e+02 -8.381205e+02 5.713292e-03) (6.735210e-02 1.557030e-02 -6.933705e-05) (0.000000e+00 0.000000e+00 0.000000e+00)) ((2.229536e-02 -1.097326e-01 -1.570554e+02) (-9.759698e-06 -2.016907e-05 1.062870e-02) (0.000000e+00 0.000000e+00 0.000000e+00))
4.800000e-02	((3.569071e+02 -8.662839e+02 2.551288e-03) (6.904398e-02 1.608791e-02 -7.974746e-05) (0.000000e+00 0.000000e+00 0.000000e+00)) ((5.184738e-02 -9.048289e-02 -1.630163e+02) (-1.016277e-05 -1.718103e-05 1.090344e-02) (0.000000e+00 0.000000e+00 0.000000e+00))
4.900000e-02	((3.703028e+02 -8.936354e+02 -8.708425e-04) (7.081539e-02 1.664933e-02 -9.302931e-05) (0.000000e+00 0.000000e+00 0.000000e+00)) ((8.794105e-02 -6.199814e-02 -1.689305e+02) (-1.017224e-05 -1.320580e-05 1.119045e-02) (0.000000e+00 0.000000e+00 0.000000e+00))
5.000000e-02	((3.833480e+02 -9.196165e+02 -4.355276e-03) (7.266449e-02 1.726427e-02 -1.100145e-04) (0.000000e+00 0.000000e+00 0.000000e+00)) ((1.073393e-01 -3.510831e-02 -1.746517e+02) (-1.210424e-05 -8.434096e-06 1.149131e-02) (0.000000e+00 0.000000e+00 0.000000e+00))
5.100000e-02	((3.959685e+02 -9.441451e+02 -3.581560e-03) (7.457535e-02 1.791314e-02 -1.295129e-04) (0.000000e+00 0.000000e+00 0.000000e+00)) ((1.417602e-01 4.401377e-03 -1.801552e+02) (-1.300324e-05 -3.982015e-06 1.180102e-02) (0.000000e+00 0.000000e+00 0.000000e+00))
5.200000e-02	((4.077319e+02 -9.663271e+02 -6.521012e-04) (7.653621e-02 1.860642e-02 -1.525356e-04) (0.000000e+00 0.000000e+00 0.000000e+00)) ((1.683369e-01 4.364536e-02 -1.852340e+02) (-1.450854e-05 -6.502304e-07 1.212081e-02) (0.000000e+00 0.000000e+00 0.000000e+00))
5.300000e-02	((4.187027e+02 -9.861967e+02 3.516533e-03) (7.852842e-02 1.933815e-02 -1.750708e-04) (0.000000e+00 0.000000e+00 0.000000e+00)) ((1.402866e-01 7.431800e-02 -1.899200e+02) (-1.491412e-05 2.559010e-06 1.244965e-02) (0.000000e+00 0.000000e+00 0.000000e+00))
5.400000e-02	((4.286043e+02 -1.002925e+03 1.045659e-02) (8.054757e-02 2.011593e-02 -1.989893e-04) (0.000000e+00 0.000000e+00 0.000000e+00)) ((1.497354e-01 1.243324e-01 -1.940640e+02) (-1.647144e-05 5.930318e-06 1.278672e-02) (0.000000e+00 0.000000e+00 0.000000e+00))
5.500000e-02	((4.374213e+02 -1.016196e+03 1.312777e-02) (8.259441e-02 2.094989e-02 -2.141945e-04) (0.000000e+00 0.000000e+00 0.000000e+00)) ((1.072017e-01 1.588675e-01 -1.976487e+02) (-1.681262e-05 9.071490e-06 1.313552e-02) (0.000000e+00 0.000000e+00 0.000000e+00))
5.600000e-02	((4.450009e+02 -1.025562e+03 1.863823e-02) (8.467996e-02 2.184586e-02 -2.319496e-04) (0.000000e+00 0.000000e+00 0.000000e+00)) ((9.524692e-02 2.004425e-01 -2.005923e+02) (-1.851294e-05 1.144472e-05 1.349588e-02) (0.000000e+00 0.000000e+00 0.000000e+00))
5.700000e-02	((4.516183e+02 -1.031553e+03 2.402687e-02) (8.682057e-02 2.281482e-02 -2.426104e-04) (0.000000e+00 0.000000e+00 0.000000e+00)) ((5.771443e-02 2.256764e-01 -2.030197e+02) (-2.018010e-05 1.495519e-05 1.387366e-02) (0.000000e+00 0.000000e+00 0.000000e+00))
5.800000e-02	((4.574940e+02 -1.034740e+03 3.051840e-02) (8.901504e-02 2.385291e-02 -2.438137e-04) (0.000000e+00 0.000000e+00 0.000000e+00)) ((2.575916e-02 2.369767e-01 -2.050361e+02) (-2.377774e-05 1.558159e-05 1.426569e-02) (0.000000e+00 0.000000e+00 0.000000e+00))
5.900000e-02	((4.629858e+02 -1.036073e+03 3.417755e-02) (9.126634e-02 2.493798e-02 -2.411322e-04) (0.000000e+00 0.000000e+00 0.000000e+00)) ((-3.164026e-02 2.313706e-01 -2.068167e+02) (-2.429094e-05 1.181242e-05 1.466948e-02) (0.000000e+00 0.000000e+00 0.000000e+00))
6.000000e-02	((4.679594e+02 -1.035538e+03 3.521764e-02) (9.357091e-02 2.607035e-02 -2.457915e-04) (0.000000e+00 0.000000e+00 0.000000e+00)) ((-6.908172e-02 2.365110e-01 -2.083181e+02) (-2.325901e-05 1.050412e-05 1.508189e-02) (0.000000e+00 0.000000e+00 0.000000e+00))
6.100000e-02	((4.724188e+02 -1.033474e+03 3.761987e-02) (9.592730e-02 2.722894e-02 -2.462925e-04) (0.000000e+00 0.000000e+00 0.000000e+00)) ((-1.599536e-01 2.089505e-01 -2.095637e+02) (-2.254735e-05 7.162100e-06 1.550031e-02) (0.000000e+00 0.000000e+00 0.000000e+00))
6.200000e-02	((4.762918e+02 -1.029956e+03 3.976713e-02) (9.832970e-02 2.841145e-02 -2.447118e-04) (0.000000e+00 0.000000e+00 0.000000e+00)) ((-2.513212e-01 1.766425e-01 -2.105351e+02) (-2.075184e-05 1.785735e-06 1.592155e-02) (0.000000e+00 0.000000e+00 0.000000e+00))
6.300000e-02	((4.795712e+02 -1.024968e+03 4.110180e-02) (1.007885e-01 2.961707e-02 -2.517410e-04) (0.000000e+00 0.000000e+00 0.000000e+00)) ((-3.292390e-01 1.426624e-01 -2.112257e+02) (-1.641932e-05 -3.892934e-06 1.634716e-02) (0.000000e+00 0.000000e+00 0.000000e+00))
6.400000e-02	((4.825417e+02 -1.019281e+03 4.375034e-02) (1.032980e-01 3.085169e-02 -2.551191e-04) (0.000000e+00 0.000000e+00 0.000000e+00)) ((-3.477290e-01 1.260108e-01 -2.117802e+02) (-1.320950e-05 -7.454494e-06 1.677445e-02) (0.000000e+00 0.000000e+00 0.000000e+00))
6.500000e-02	((4.852313e+02 -1.013385e+03 4.700804e-02) (1.058944e-01 3.209723e-02 -2.579241e-04) (0.000000e+00 0.000000e+00 0.000000e+00)) ((-3.474056e-01 1.182955e-01 -2.122426e+02) (-1.243558e-05 -9.888368e-06 1.720776e-02) (0.000000e+00 0.000000e+00 0.000000e+00))
6.600000e-02	((4.876356e+02 -1.007447e+03 5.073896e-02) (1.085372e-01 3.336230e-02 -2.616046e-04) (0.000000e+00 0.000000e+00 0.000000e+00)) ((-2.852373e-01 1.372643e-01 -2.126193e+02) (-5.536402e-06 -7.505376e-06 1.764136e-02) (0.000000e+00 0.000000e+00 0.000000e+00))
6.700000e-02	((4.897257e+02 -1.001561e+03 5.474394e-02) (1.112336e-01 3.463035e-02 -2.541713e-04) (0.000000e+00 0.000000e+00 0.000000e+00)) ((-2.431384e-01 1.427768e-01 -2.128950e+02) (-5.195055e-06 -5.255126e-06 1.807690e-02) (0.000000e+00 0.000000e+00 0.000000e+00))
6.800000e-02	((4.917631e+02 -9.962889e+02 6.284416e-02) (1.139385e-01 3.591428e-02 -2.525855e-04) (0.000000e+00 0.000000e+00 0.000000e+00)) ((-1.864132e-01 1.489964e-01 -2.132026e+02) (2.522658e-06 -3.954035e-06 1.851111e-02) (0.000000e+00 0.000000e+00 0.000000e+00))
6.900000e-02	((4.935674e+02 -9.910871e+02 6.219180e-02) (1.166492e-01 3.713632e-02 -2.527286e-04) (0.000000e+00 0.000000e+00 0.000000e+00)) ((-2.048040e-01 1.285720e-01 -2.134476e+02) (5.012180e-06 2.004394e-06 1.893348e-02) (0.000000e+00 0.000000e+00 0.000000e+00))
7.000000e-02	((4.951473e+02 -9.860818e+02 6.288438e-02) (1.193838e-01 3.837660e-02 -2.599855e-04) (0.000000e+00 0.000000e+00 0.000000e+00)) ((-2.395657e-01 9.523045e-02 -2.136265e+02) (1.027683e-05 6.466991e-06 1.935823e-02) (0.000000e+00 0.000000e+00 0.000000e+00))
7.100000e-02	((4.965189e+02 -9.811970e+02 6.431083e-02) (1.221188e-01 3.957202e-02 -2.461980e-04) (0.000000e+00 0.000000e+00 0.000000e+00)) ((-3.510748e-01 2.931853e-02 -2.137489e+02) (1.210448e-05 1.096044e-05 1.977311e-02) (0.000000e+00 0.000000e+00 0.000000e+00))
7.200000e-02	((4.982398e+02 -9.776994e+02 6.438346e-02) (1.248958e-01 4.079388e-02 -2.314008e-04) (0.000000e+00 0.000000e+00 0.000000e+00)) ((-4.390962e-01 -3.973366e-02 -2.140676e+02) (1.439708e-05 1.073257e-05 2.019152e-02) (0.000000e+00 0.000000e+00 0.000000e+00))
7.300000e-02	((5.008123e+02 -9.767427e+02 6.483405e-02) (1.277611e-01 4.200389e-02 -2.105499e-04) (0.000000e+00 0.000000e+00 0.000000e+00)) ((-4.998820e-01 -8.820665e-02 -2.148278e+02) (1.557825e-05 5.996657e-06 2.060795e-02) (0.000000e+00 0.000000e+00 0.000000e+00))
7.400000e-02	((5.044342e+02 -9.789016e+02 6.608666e-02) (1.306774e-01 4.323661e-02 -1.878174e-04) (0.000000e+00 0.000000e+00 0.000000e+00)) ((-4.545492e-01 -9.806296e-02 -2.161313e+02) (1.499830e-05 -4.119435e-07 2.102410e-02) (0.000000e+00 0.000000e+00 0.000000e+00))
7.500000e-02	((5.089279e+02 -9.839165e+02 6.752541e-02) (1.336571e-01 4.445590e-02 -1.571873e-04) (0.000000e+00 0.000000e+00 0.000000e+00)) ((-4.617481e-01 -1.293680e-01 -2.179079e+02) (1.483708e-05 -7.634225e-06 2.143606e-02) (0.000000e+00 0.000000e+00 0.000000e+00))
7.600000e-02	((5.146596e+02 -9.927714e+02 6.355369e-02) (1.366566e-01 4.566453e-02 -1.429731e-04) (0.000000e+00 0.000000e+00 0.000000e+00)) ((-5.188376e-01 -1.742162e-01 -2.203623e+02) (9.494602e-06 -1.381802e-05 2.184311e-02) (0.000000e+00 0.000000e+00 0.000000e+00))
7.700000e-02	((5.209411e+02 -1.003362e+03 6.171853e-02) (1.397866e-01 4.688304e-02 -1.256278e-04) (0.000000e+00 0.000000e+00 0.000000e+00)) ((-5.968714e-01 -2.194701e-01 -2.231377e+02) (7.288584e-06 -2.138357e-05 2.225419e-02) (0.000000e+00 0.000000e+00 0.000000e+00))
7.800000e-02	((5.275808e+02 -1.015813e+03 6.490458e-02) (1.428029e-01 4.806006e-02 -1.126653e-04) (0.000000e+00 0.000000e+00 0.000000e+00)) ((-6.652560e-01 -2.416162e-01 -2.261470e+02) (5.303899e-06 -3.401840e-05 2.264993e-02) (0.000000e+00 0.000000e+00 0.000000e+00))
7.900000e-02	((5.334645e+02 -1.027282e+03 6.455812e-02) (1.460368e-01 4.924083e-02 -9.750580e-05) (0.000000e+00 0.000000e+00 0.000000e+00)) ((-6.726870e-01 -2.534304e-01 -2.288468e+02) (8.769679e-07 -4.313774e-05 2.306211e-02) (0.000000e+00 0.000000e+00 0.000000e+00))
8.000000e-02	((5.383549e+02 -1.038963e+03 6.431948e-02) (1.491584e-01 5.041380e-02 -9.012622e-05) (0.000000e+00 0.000000e+00 0.000000e+00)) ((-7.036997e-01 -2.632307e-01 -2.311357e+02) (-3.170658e-06 -4.889995e-05 2.346815e-02) (0.000000e+00 0.000000e+00 0.000000e+00))
8.100000e-02	((5.427120e+02 -1.050897e+03 5.797151e-02) (1.524742e-01 5.154649e-02 -8.264896e-05) (0.000000e+00 0.000000e+00 0.000000e+00)) ((-6.737131e-01 -2.687176e-01 -2.331756e+02) (-6.312054e-06 -5.251695e-05 2.389190e-02) (0.000000e+00 0.000000e+00 0.000000e+00))
8.200000e-02	((5.461823e+02 -1.063142e+03 4.851157e-02) (1.556485e-01 5.275591e-02 -8.205549e-05) (0.000000e+00 0.000000e+00 0.000000e+00)) ((-6.963801e-01 -2.932248e-01 -2.348112e+02) (-7.741844e-06 -4.444844e-05 2.432470e-02) (0.000000e+00 0.000000e+00 0.000000e+00))
8.300000e-02	((5.477793e+02 -1.072699e+03 4.290911e-02) (1.589984e-01 5.406365e-02 -7.821366e-05) (0.000000e+00 0.000000e+00 0.000000e+00)) ((-6.178484e-01 -2.846169e-01 -2.356334e+02) (-1.100311e-05 -4.097107e-05 2.479971e-02) (0.000000e+00 0.000000e+00 0.000000e+00))
8.400000e-02	((5.483947e+02 -1.082120e+03 3.558879e-02) (1.621492e-01 5.544071e-02 -8.354881e-05) (0.000000e+00 0.000000e+00 0.000000e+00)) ((-6.854086e-01 -3.040705e-01 -2.360317e+02) (-7.320045e-06 -2.683628e-05 2.527634e-02) (0.000000e+00 0.000000e+00 0.000000e+00))
8.500000e-02	((5.487219e+02 -1.090819e+03 3.372214e-02) (1.654383e-01 5.687048e-02 -7.741829e-05) (0.000000e+00 0.000000e+00 0.000000e+00)) ((-6.328917e-01 -2.559412e-01 -2.363184e+02) (-1.291311e-05 -3.260262e-05 2.579289e-02) (0.000000e+00 0.000000e+00 0.000000e+00))
8.600000e-02	((5.500618e+02 -1.101954e+03 4.264966e-02) (1.685255e-01 5.831511e-02 -7.009245e-05) (0.000000e+00 0.000000e+00 0.000000e+00)) ((-6.698940e-01 -2.391904e-01 -2.370394e+02) (-1.733628e-05 -2.995046e-05 2.630894e-02) (0.000000e+00 0.000000e+00 0.000000e+00))
8.700000e-02	((5.525525e+02 -1.113919e+03 5.149130e-02) (1.716821e-01 5.981609e-02 -6.479562e-05) (0.000000e+00 0.000000e+00 0.000000e+00)) ((-6.697235e-01 -2.366934e-01 -2.382527e+02) (-2.543291e-05 -2.620487e-05 2.685294e-02) (0.000000e+00 0.000000e+00 0.000000e+00))
8.800000e-02	((5.554256e+02 -1.127039e+03 5.289404e-02) (1.747437e-01 6.135581e-02 -4.830333e-05) (0.000000e+00 0.000000e+00 0.000000e+00)) ((-7.368466e-01 -2.744966e-01 -2.396471e+02) (-2.613944e-05 -3.104974e-05 2.740697e-02) (0.000000e+00 0.000000e+00 0.000000e+00))
8.900000e-02	((5.573251e+02 -1.138564e+03 4.803410e-02) (1.777741e-01 6.291737e-02 -4.420556e-05) (0.000000e+00 0.000000e+00 0.000000e+00)) ((-8.177548e-01 -3.371221e-01 -2.406718e+02) (-2.882835e-05 -3.921463e-05 2.796603e-02) (0.000000e+00 0.000000e+00 0.000000e+00))
9.000000e-02	((5.588792e+02 -1.149933e+03 5.211444e-02) (1.807074e-01 6.446336e-02 -4.203320e-05) (0.000000e+00 0.000000e+00 0.000000e+00)) ((-8.920928e-01 -3.695825e-01 -2.416290e+02) (-1.734319e-05 -5.310191e-05 2.852251e-02) (0.000000e+00 0.000000e+00 0.000000e+00))
9.100000e-02	((5.613714e+02 -1.162730e+03 5.273889e-02) (1.836003e-01 6.591943e-02 -2.895761e-05) (0.000000e+00 0.000000e+00 0.000000e+00)) ((-8.943340e-01 -3.670003e-01 -2.430698e+02) (-1.929977e-05 -5.877032e-05 2.906669e-02) (0.000000e+00 0.000000e+00 0.000000e+00))
9.200000e-02	((5.657672e+02 -1.178668e+03 5.065203e-02) (1.863865e-01 6.728297e-02 -1.674521e-07) (0.000000e+00 0.000000e+00 0.000000e+00)) ((-8.496945e-01 -3.243244e-01 -2.454080e+02) (-1.993554e-05 -7.483509e-05 2.958679e-02) (0.000000e+00 0.000000e+00 0.000000e+00))
9.300000e-02	((5.720585e+02 -1.197295e+03 4.490906e-02) (1.891201e-01 6.858101e-02 3.087388e-05) (0.000000e+00 0.000000e+00 0.000000e+00)) ((-8.165788e-01 -3.035622e-01 -2.485898e+02) (-1.661313e-05 -9.733034e-05 3.008766e-02) (0.000000e+00 0.000000e+00 0.000000e+00))
9.400000e-02	((5.801764e+02 -1.218907e+03 3.208177e-02) (1.917950e-01 6.978450e-02 7.334553e-05) (0.000000e+00 0.000000e+00 0.000000e+00)) ((-8.357842e-01 -3.157753e-01 -2.525912e+02) (-1.583804e-05 -1.155921e-04 3.055494e-02) (0.000000e+00 0.000000e+00 0.000000e+00))
9.500000e-02	((5.895695e+02 -1.242297e+03 1.310974e-02) (1.944119e-01 7.092833e-02 7.193562e-05) (0.000000e+00 0.000000e+00 0.000000e+00)) ((-8.547640e-01 -3.381857e-01 -2.571219e+02) (-1.072470e-05 -1.290524e-04 3.099609e-02) (0.000000e+00 0.000000e+00 0.000000e+00))
9.600000e-02	((5.999383e+02 -1.267088e+03 -4.526664e-05) (1.969368e-01 7.197994e-02 8.491023e-05) (0.000000e+00 0.000000e+00 0.000000e+00)) ((-7.795111e-01 -3.324790e-01 -2.620472e+02) (-4.386936e-06 -1.486595e-04 3.140401e-02) (0.000000e+00 0.000000e+00 0.000000e+00))
9.700000e-02	((6.107349e+02 -1.292183e+03 -1.329614e-02) (1.994025e-01 7.297192e-02 9.126179e-05) (0.000000e+00 0.000000e+00 0.000000e+00)) ((-6.745669e-01 -3.185310e-01 -2.670937e+02) (5.846527e-07 -1.604727e-04 3.178945e-02) (0.000000e+00 0.000000e+00 0.000000e+00))
9.800000e-02	((6.216300e+02 -1.317262e+03 -2.244223e-02) (2.018598e-01 7.391547e-02 1.070115e-04) (0.000000e+00 0.000000e+00 0.000000e+00)) ((-6.018943e-01 -2.975105e-01 -2.721295e+02) (1.276951e-05 -1.769557e-04 3.216023e-02) (0.000000e+00 0.000000e+00 0.000000e+00))
9.900000e-02	((6.323012e+02 -1.341772e+03 -3.113951e-02) (2.042993e-01 7.484871e-02 1.023027e-04) (0.000000e+00 0.000000e+00 0.000000e+00)) ((-5.732624e-01 -2.776677e-01 -2.770266e+02) (2.080176e-05 -1.871171e-04 3.252680e-02) (0.000000e+00 0.000000e+00 0.000000e+00))
1.000000e-01	((6.423159e+02 -1.365569e+03 -3.788083e-02) (2.068268e-01 7.586511e-02 8.334505e-05) (0.000000e+00 0.000000e+00 0.000000e+00)) ((-5.671329e-01 -2.580844e-01 -2.816630e+02) (3.232733e-05 -1.940233e-04 3.292471e-02) (0.000000e+00 0.000000e+00 0.000000e+00))
1.010000e-01	((6.514765e+02 -1.388259e+03 -4.595399e-02) (2.092840e-01 7.686998e-02 6.762209e-05) (0.000000e+00 0.000000e+00 0.000000e+00)) ((-5.961181e-01 -2.537508e-01 -2.859613e+02) (4.524132e-05 -1.969509e-04 3.332058e-02) (0.000000e+00 0.000000e+00 0.000000e+00))
1.020000e-01	((6.600638e+02 -1.410599e+03 -5.010625e-02) (2.117178e-01 7.785436e-02 5.239236e-05) (0.000000e+00 0.000000e+00 0.000000e+00)) ((-6.273055e-01 -2.521552e-01 -2.900692e+02) (5.126112e-05 -1.930901e-04 3.371062e-02) (0.000000e+00 0.000000e+00 0.000000e+00))
1.030000e-01	((6.681952e+02 -1.432369e+03 -5.254205e-02) (2.141384e-01 7.885192e-02 3.503574e-05) (0.000000e+00 0.000000e+00 0.000000e+00)) ((-6.502522e-01 -2.602834e-01 -2.940032e+02) (4.835656e-05 -1.833658e-04 3.410466e-02) (0.000000e+00 0.000000e+00 0.000000e+00))
1.040000e-01	((6.756957e+02 -1.453501e+03 -5.245093e-02) (2.165419e-01 7.986032e-02 2.269246e-05) (0.000000e+00 0.000000e+00 0.000000e+00)) ((-6.456029e-01 -2.565769e-01 -2.977012e+02) (4.512248e-05 -1.775091e-04 3.450689e-02) (0.000000e+00 0.000000e+00 0.000000e+00))
1.050000e-01	((6.824789e+02 -1.473433e+03 -5.823228e-02) (2.188930e-01 8.084129e-02 2.038274e-05) (0.000000e+00 0.000000e+00 0.000000e+00)) ((-6.435260e-01 -2.555195e-01 -3.010838e+02) (4.793810e-05 -1.810472e-04 3.489997e-02) (0.000000e+00 0.000000e+00 0.000000e+00))
1.060000e-01	((6.887064e+02 -1.492666e+03 -6.126270e-02) (2.212587e-01 8.182523e-02 1.532975e-05) (0.000000e+00 0.000000e+00 0.000000e+00)) ((-6.563196e-01 -2.596275e-01 -3.042523e+02) (5.325666e-05 -1.834187e-04 3.529402e-02) (0.000000e+00 0.000000e+00 0.000000e+00))
1.070000e-01	((6.948954e+02 -1.511563e+03 -6.582084e-02) (2.236211e-01 8.284953e-02 1.961249e-05) (0.000000e+00 0.000000e+00 0.000000e+00)) ((-7.427655e-01 -3.061528e-01 -3.073944e+02) (5.607146e-05 -1.945735e-04 3.569717e-02) (0.000000e+00 0.000000e+00 0.000000e+00))
1.080000e-01	((7.013632e+02 -1.530846e+03 -6.730218e-02) (2.259924e-01 8.391388e-02 1.234608e-05) (0.000000e+00 0.000000e+00 0.000000e+00)) ((-7.810688e-01 -3.246285e-01 -3.106684e+02) (6.440315e-05 -1.946183e-04 3.611214e-02) (0.000000e+00 0.000000e+00 0.000000e+00))
1.090000e-01	((7.081832e+02 -1.550439e+03 -7.499912e-02) (2.283687e-01 8.501910e-02 7.014893e-06) (0.000000e+00 0.000000e+00 0.000000e+00)) ((-8.281970e-01 -3.426588e-01 -3.140909e+02) (6.750017e-05 -2.019083e-04 3.653737e-02) (0.000000e+00 0.000000e+00 0.000000e+00))
1.100000e-01	((7.155708e+02 -1.570918e+03 -8.324881e-02) (2.307510e-01 8.615301e-02 2.622919e-06) (0.000000e+00 0.000000e+00 0.000000e+00)) ((-8.680037e-01 -3.564167e-01 -3.177761e+02) (7.313246e-05 -2.047417e-04 3.697222e-02) (0.000000e+00 0.000000e+00 0.000000e+00))
1.110000e-01	((7.234660e+02 -1.592018e+03 -9.869253e-02) (2.331431e-01 8.732786e-02 -4.017875e-06) (0.000000e+00 0.000000e+00 0.000000e+00)) ((-9.437872e-01 -3.889048e-01 -3.216921e+02) (7.469292e-05 -2.107957e-04 3.741853e-02) (0.000000e+00 0.000000e+00 0.000000e+00))