# Forces     
# CofR       : (0.000000e+00 0.000000e+00 0.000000e+00)
# Time       forces(pressure viscous porous) moment(pressure viscous porous)
1.000000e-03	((1.098727e+00 -1.687211e+00 -4.791570e-05) (8.717611e-03 -1.116952e-04 6.808258e-08) (0.000000e+00 0.000000e+00 0.000000e+00)) ((-3.840344e-05 7.972237e-05 -4.549085e-01) (-4.805605e-08 2.062389e-06 2.062772e-04) (0.000000e+00 0.000000e+00 0.000000e+00))
2.000000e-03	((5.173719e+00 -8.298462e+00 -2.790272e-04) (9.144306e-03 1.312738e-03 -2.539826e-06) (0.000000e+00 0.000000e+00 0.000000e+00)) ((-4.080591e-04 -1.104228e-05 -2.073864e+00) (-3.795862e-06 1.244510e-06 8.014957e-04) (0.000000e+00 0.000000e+00 0.000000e+00))
3.000000e-03	((7.877700e+00 -1.332955e+01 -2.927438e-04) (1.064964e-02 2.585807e-03 -1.695332e-06) (0.000000e+00 0.000000e+00 0.000000e+00)) ((-2.805770e-04 -2.264488e-04 -3.163570e+00) (-6.773499e-06 5.083939e-06 1.317781e-03) (0.000000e+00 0.000000e+00 0.000000e+00))
4.000000e-03	((8.175259e+00 -1.454738e+01 -2.743756e-04) (1.290269e-02 4.246364e-03 -2.917375e-06) (0.000000e+00 0.000000e+00 0.000000e+00)) ((3.107166e-03 8.294172e-04 -3.293956e+00) (-1.000562e-05 8.797532e-06 2.022307e-03) (0.000000e+00 0.000000e+00 0.000000e+00))
5.000000e-03	((7.302590e+00 -1.401401e+01 -1.015517e-03) (1.494197e-02 5.294075e-03 -7.084338e-06) (0.000000e+00 0.000000e+00 0.000000e+00)) ((9.169017e-03 3.188935e-03 -2.970401e+00) (-9.019803e-06 1.701117e-05 2.487587e-03) (0.000000e+00 0.000000e+00 0.000000e+00))
6.000000e-03	((6.354061e+00 -1.355479e+01 -1.488252e-03) (1.656609e-02 6.000900e-03 -1.136001e-05) (0.000000e+00 0.000000e+00 0.000000e+00)) ((1.752748e-02 6.869347e-03 -2.650805e+00) (-9.090109e-06 2.034312e-05 2.832905e-03) (0.000000e+00 0.000000e+00 0.000000e+00))
7.000000e-03	((5.747680e+00 -1.375797e+01 -2.350496e-03) (1.761550e-02 6.342394e-03 -1.563473e-05) (0.000000e+00 0.000000e+00 0.000000e+00)) ((2.372693e-02 1.057949e-02 -2.497927e+00) (-1.061370e-05 1.593984e-05 3.018750e-03) (0.000000e+00 0.000000e+00 0.000000e+00))
8.000000e-03	((6.102143e+00 -1.543480e+01 -2.505304e-03) (1.836329e-02 6.461927e-03 -2.323981e-05) (0.000000e+00 0.000000e+00 0.000000e+00)) ((2.306372e-02 1.079953e-02 -2.736586e+00) (-1.053059e-05 1.880214e-05 3.119068e-03) (0.000000e+00 0.000000e+00 0.000000e+00))
9.000000e-03	((7.162776e+00 -1.814944e+01 -1.654769e-03) (1.894473e-02 6.508339e-03 -2.923070e-05) (0.000000e+00 0.000000e+00 0.000000e+00)) ((1.913852e-02 8.987121e-03 -3.253908e+00) (-1.163674e-05 2.051548e-05 3.189644e-03) (0.000000e+00 0.000000e+00 0.000000e+00))
1.000000e-02	((8.539458e+00 -2.127647e+01 -4.023924e-04) (1.950462e-02 6.502022e-03 -2.831399e-05) (0.000000e+00 0.000000e+00 0.000000e+00)) ((1.292296e-02 5.816669e-03 -3.886930e+00) (-1.262093e-05 2.035084e-05 3.251611e-03) (0.000000e+00 0.000000e+00 0.000000e+00))
1.100000e-02	((9.819670e+00 -2.418233e+01 7.711939e-04) (2.009414e-02 6.446222e-03 -2.572506e-05) (0.000000e+00 0.000000e+00 0.000000e+00)) ((8.233166e-03 3.229348e-03 -4.469719e+00) (-1.406534e-05 1.842476e-05 3.301505e-03) (0.000000e+00 0.000000e+00 0.000000e+00))
1.200000e-02	((1.100428e+01 -2.690747e+01 1.632334e-03) (2.070781e-02 6.434932e-03 -2.365498e-05) (0.000000e+00 0.000000e+00 0.000000e+00)) ((7.125461e-03 1.946046e-03 -5.002654e+00) (-1.426821e-05 1.715842e-05 3.365308e-03) (0.000000e+00 0.000000e+00 0.000000e+00))
1.300000e-02	((1.196996e+01 -2.927677e+01 1.841407e-03) (2.140528e-02 6.456137e-03 -2.049883e-05) (0.000000e+00 0.000000e+00 0.000000e+00)) ((8.506180e-03 2.123840e-03 -5.443052e+00) (-1.381891e-05 1.536973e-05 3.444970e-03) (0.000000e+00 0.000000e+00 0.000000e+00))
1.400000e-02	((1.282963e+01 -3.150255e+01 1.827156e-03) (2.210934e-02 6.512133e-03 -1.771511e-05) (0.000000e+00 0.000000e+00 0.000000e+00)) ((1.305417e-02 3.752882e-03 -5.841967e+00) (-1.405374e-05 1.339697e-05 3.533451e-03) (0.000000e+00 0.000000e+00 0.000000e+00))
1.500000e-02	((1.383917e+01 -3.404387e+01 9.777248e-04) (2.279504e-02 6.611229e-03 -1.485058e-05) (0.000000e+00 0.000000e+00 0.000000e+00)) ((1.695876e-02 5.561331e-03 -6.305987e+00) (-1.466381e-05 1.176922e-05 3.632816e-03) (0.000000e+00 0.000000e+00 0.000000e+00))
1.600000e-02	((1.506739e+01 -3.704465e+01 -5.599440e-05) (2.350054e-02 6.710538e-03 -1.670570e-05) (0.000000e+00 0.000000e+00 0.000000e+00)) ((1.708905e-02 5.615359e-03 -6.867362e+00) (-1.587630e-05 1.053018e-05 3.731447e-03) (0.000000e+00 0.000000e+00 0.000000e+00))
1.700000e-02	((1.647517e+01 -4.052912e+01 -9.033647e-04) (2.421526e-02 6.807359e-03 -1.812985e-05) (0.000000e+00 0.000000e+00 0.000000e+00)) ((1.659782e-02 5.265019e-03 -7.516208e+00) (-1.754189e-05 9.666065e-06 3.828127e-03) (0.000000e+00 0.000000e+00 0.000000e+00))
1.800000e-02	((1.806033e+01 -4.450068e+01 -9.146992e-04) (2.492404e-02 6.917906e-03 -1.753784e-05) (0.000000e+00 0.000000e+00 0.000000e+00)) ((1.678454e-02 4.907362e-03 -8.249214e+00) (-1.807690e-05 7.453767e-06 3.924294e-03) (0.000000e+00 0.000000e+00 0.000000e+00))
1.900000e-02	((1.971577e+01 -4.876179e+01 -6.620344e-04) (2.558868e-02 6.969492e-03 -1.474668e-05) (0.000000e+00 0.000000e+00 0.000000e+00)) ((1.704449e-02 4.516016e-03 -9.020437e+00) (-1.862605e-05 5.534544e-06 4.001908e-03) (0.000000e+00 0.000000e+00 0.000000e+00))
2.000000e-02	((2.137092e+01 -5.311315e+01 -1.099409e-03) (2.620783e-02 6.967973e-03 -1.108390e-05) (0.000000e+00 0.000000e+00 0.000000e+00)) ((1.899265e-02 5.403397e-03 -9.795434e+00) (-2.046732e-05 4.424784e-06 4.063730e-03) (0.000000e+00 0.000000e+00 0.000000e+00))
2.100000e-02	((2.293760e+01 -5.733351e+01 -1.219629e-03) (2.676630e-02 6.941422e-03 -1.087671e-05) (0.000000e+00 0.000000e+00 0.000000e+00)) ((1.855204e-02 4.717012e-03 -1.053465e+01) (-2.015678e-05 1.749816e-06 4.117110e-03) (0.000000e+00 0.000000e+00 0.000000e+00))
2.200000e-02	((2.444167e+01 -6.143611e+01 -1.437548e-03) (2.727002e-02 6.883525e-03 -9.512768e-06) (0.000000e+00 0.000000e+00 0.000000e+00)) ((1.816120e-02 4.222169e-03 -1.125024e+01) (-1.566188e-05 -1.753662e-06 4.160888e-03) (0.000000e+00 0.000000e+00 0.000000e+00))
2.300000e-02	((2.592588e+01 -6.547544e+01 -1.087246e-03) (2.775608e-02 6.856342e-03 -8.633428e-06) (0.000000e+00 0.000000e+00 0.000000e+00)) ((1.912349e-02 3.668442e-03 -1.195903e+01) (-1.299162e-05 -4.804014e-06 4.216598e-03) (0.000000e+00 0.000000e+00 0.000000e+00))
2.400000e-02	((2.746162e+01 -6.956540e+01 -3.955858e-04) (2.821758e-02 6.891781e-03 -6.462333e-06) (0.000000e+00 0.000000e+00 0.000000e+00)) ((1.596741e-02 1.554098e-03 -1.268945e+01) (-1.342122e-05 -6.594350e-06 4.285594e-03) (0.000000e+00 0.000000e+00 0.000000e+00))
2.500000e-02	((2.912223e+01 -7.385916e+01 3.191081e-04) (2.863549e-02 6.901948e-03 -6.988771e-06) (0.000000e+00 0.000000e+00 0.000000e+00)) ((1.479887e-02 -5.661533e-04 -1.347094e+01) (-1.136844e-05 -7.298800e-06 4.347682e-03) (0.000000e+00 0.000000e+00 0.000000e+00))
2.600000e-02	((3.095602e+01 -7.846003e+01 8.031589e-04) (2.902245e-02 6.935334e-03 -6.524072e-06) (0.000000e+00 0.000000e+00 0.000000e+00)) ((1.426988e-02 -2.357890e-03 -1.432343e+01) (-1.166088e-05 -8.222874e-06 4.411768e-03) (0.000000e+00 0.000000e+00 0.000000e+00))
2.700000e-02	((3.300101e+01 -8.348528e+01 1.207722e-03) (2.932488e-02 7.003420e-03 -4.772209e-06) (0.000000e+00 0.000000e+00 0.000000e+00)) ((1.222512e-02 -3.829616e-03 -1.526398e+01) (-1.253441e-05 -9.283456e-06 4.477146e-03) (0.000000e+00 0.000000e+00 0.000000e+00))
2.800000e-02	((3.522814e+01 -8.892977e+01 1.537783e-03) (2.954736e-02 7.051729e-03 -4.233387e-06) (0.000000e+00 0.000000e+00 0.000000e+00)) ((1.315596e-02 -2.980463e-03 -1.628528e+01) (-1.266084e-05 -8.707083e-06 4.530416e-03) (0.000000e+00 0.000000e+00 0.000000e+00))
2.900000e-02	((3.761496e+01 -9.478131e+01 2.135769e-03) (2.964605e-02 7.013299e-03 -7.973155e-06) (0.000000e+00 0.000000e+00 0.000000e+00)) ((1.934910e-02 5.546435e-04 -1.737797e+01) (-1.322136e-05 -1.275451e-05 4.559817e-03) (0.000000e+00 0.000000e+00 0.000000e+00))
3.000000e-02	((4.008655e+01 -1.009120e+02 3.006639e-03) (2.974638e-02 6.970464e-03 -8.175699e-06) (0.000000e+00 0.000000e+00 0.000000e+00)) ((1.879200e-02 2.253779e-03 -1.851257e+01) (-1.561380e-05 -1.353602e-05 4.589365e-03) (0.000000e+00 0.000000e+00 0.000000e+00))
3.100000e-02	((4.259466e+01 -1.072126e+02 3.982288e-03) (2.993683e-02 6.900304e-03 -8.425755e-06) (0.000000e+00 0.000000e+00 0.000000e+00)) ((1.200395e-02 6.341051e-04 -1.966584e+01) (-1.526705e-05 -1.247095e-05 4.625356e-03) (0.000000e+00 0.000000e+00 0.000000e+00))
3.200000e-02	((4.509630e+01 -1.135806e+02 4.885818e-03) (3.023178e-02 6.867726e-03 -9.021401e-06) (0.000000e+00 0.000000e+00 0.000000e+00)) ((2.780789e-03 -2.340668e-03 -2.082017e+01) (-1.651918e-05 -1.376897e-05 4.677527e-03) (0.000000e+00 0.000000e+00 0.000000e+00))
3.300000e-02	((4.762738e+01 -1.200544e+02 6.050257e-03) (3.053199e-02 6.827925e-03 -5.507640e-06) (0.000000e+00 0.000000e+00 0.000000e+00)) ((-6.840058e-03 -5.795987e-03 -2.198671e+01) (-1.702792e-05 -1.836019e-05 4.731659e-03) (0.000000e+00 0.000000e+00 0.000000e+00))
3.400000e-02	((5.020972e+01 -1.266569e+02 6.970156e-03) (3.091788e-02 6.834198e-03 2.019061e-06) (0.000000e+00 0.000000e+00 0.000000e+00)) ((-1.470719e-02 -7.439182e-03 -2.317887e+01) (-1.818500e-05 -2.105169e-05 4.799643e-03) (0.000000e+00 0.000000e+00 0.000000e+00))
3.500000e-02	((5.289929e+01 -1.334706e+02 7.916411e-03) (3.134658e-02 6.854368e-03 7.493108e-06) (0.000000e+00 0.000000e+00 0.000000e+00)) ((-2.323969e-02 -8.216126e-03 -2.441585e+01) (-1.834728e-05 -2.251446e-05 4.875507e-03) (0.000000e+00 0.000000e+00 0.000000e+00))
3.600000e-02	((5.572258e+01 -1.405738e+02 8.543954e-03) (3.185115e-02 6.933687e-03 1.405366e-05) (0.000000e+00 0.000000e+00 0.000000e+00)) ((-3.877961e-02 -1.038778e-02 -2.571555e+01) (-1.939591e-05 -2.423331e-05 4.966869e-03) (0.000000e+00 0.000000e+00 0.000000e+00))
3.700000e-02	((5.873870e+01 -1.480430e+02 8.913389e-03) (3.238573e-02 7.011658e-03 2.330670e-05) (0.000000e+00 0.000000e+00 0.000000e+00)) ((-6.165407e-02 -1.451185e-02 -2.709553e+01) (-1.940282e-05 -2.884641e-05 5.061331e-03) (0.000000e+00 0.000000e+00 0.000000e+00))
3.800000e-02	((6.194925e+01 -1.558950e+02 8.803984e-03) (3.298219e-02 7.128548e-03 3.415179e-05) (0.000000e+00 0.000000e+00 0.000000e+00)) ((-9.055319e-02 -1.936636e-02 -2.856074e+01) (-2.123802e-05 -3.268796e-05 5.164530e-03) (0.000000e+00 0.000000e+00 0.000000e+00))
3.900000e-02	((6.538080e+01 -1.641512e+02 8.170111e-03) (3.361746e-02 7.253373e-03 4.293246e-05) (0.000000e+00 0.000000e+00 0.000000e+00)) ((-1.133462e-01 -2.319744e-02 -3.011521e+01) (-2.211092e-05 -3.297362e-05 5.273948e-03) (0.000000e+00 0.000000e+00 0.000000e+00))
4.000000e-02	((6.902617e+01 -1.728171e+02 7.229037e-03) (3.432652e-02 7.407080e-03 5.112072e-05) (0.000000e+00 0.000000e+00 0.000000e+00)) ((-1.326738e-01 -2.634380e-02 -3.176221e+01) (-2.317382e-05 -3.502044e-05 5.390782e-03) (0.000000e+00 0.000000e+00 0.000000e+00))
4.100000e-02	((7.279745e+01 -1.816931e+02 5.819524e-03) (3.507118e-02 7.567548e-03 5.749049e-05) (0.000000e+00 0.000000e+00 0.000000e+00)) ((-1.475888e-01 -2.757646e-02 -3.345488e+01) (-2.435883e-05 -3.470246e-05 5.513710e-03) (0.000000e+00 0.000000e+00 0.000000e+00))
4.200000e-02	((7.661499e+01 -1.906475e+02 3.968059e-03) (3.588661e-02 7.764556e-03 6.606759e-05) (0.000000e+00 0.000000e+00 0.000000e+00)) ((-1.570514e-01 -2.778446e-02 -3.516495e+01) (-2.547592e-05 -3.612746e-05 5.646708e-03) (0.000000e+00 0.000000e+00 0.000000e+00))
4.300000e-02	((8.049304e+01 -1.996466e+02 2.343230e-03) (3.673096e-02 7.960295e-03 7.633966e-05) (0.000000e+00 0.000000e+00 0.000000e+00)) ((-1.685248e-01 -2.827778e-02 -3.689151e+01) (-2.702415e-05 -3.686798e-05 5.784110e-03) (0.000000e+00 0.000000e+00 0.000000e+00))
4.400000e-02	((8.443592e+01 -2.086956e+02 1.020531e-03) (3.764281e-02 8.199157e-03 8.709839e-05) (0.000000e+00 0.000000e+00 0.000000e+00)) ((-1.818686e-01 -3.091006e-02 -3.864317e+01) (-2.887061e-05 -3.857294e-05 5.931934e-03) (0.000000e+00 0.000000e+00 0.000000e+00))
4.500000e-02	((8.849045e+01 -2.178810e+02 -5.074954e-04) (3.858122e-02 8.451467e-03 9.744189e-05) (0.000000e+00 0.000000e+00 0.000000e+00)) ((-2.041698e-01 -3.675020e-02 -4.043664e+01) (-2.918764e-05 -4.070433e-05 6.086614e-03) (0.000000e+00 0.000000e+00 0.000000e+00))
4.600000e-02	((9.269599e+01 -2.272504e+02 -2.355112e-03) (3.960145e-02 8.740311e-03 1.081445e-04) (0.000000e+00 0.000000e+00 0.000000e+00)) ((-2.385838e-01 -4.780731e-02 -4.229252e+01) (-3.067324e-05 -4.427843e-05 6.250386e-03) (0.000000e+00 0.000000e+00 0.000000e+00))
4.700000e-02	((9.699209e+01 -2.365605e+02 -4.440898e-03) (4.066641e-02 9.052381e-03 1.234249e-04) (0.000000e+00 0.000000e+00 0.000000e+00)) ((-2.829544e-01 -6.028863e-02 -4.417396e+01) (-3.063786e-05 -4.920914e-05 6.425527e-03) (0.000000e+00 0.000000e+00 0.000000e+00))
4.800000e-02	((1.014445e+02 -2.459400e+02 -6.131098e-03) (4.179415e-02 9.380203e-03 1.374361e-04) (0.000000e+00 0.000000e+00 0.000000e+00)) ((-3.107508e-01 -6.884595e-02 -4.611558e+01) (-3.137029e-05 -5.344041e-05 6.604078e-03) (0.000000e+00 0.000000e+00 0.000000e+00))
4.900000e-02	((1.060350e+02 -2.554232e+02 -8.518414e-03) (4.295981e-02 9.708657e-03 1.546756e-04) (0.000000e+00 0.000000e+00 0.000000e+00)) ((-3.357910e-01 -7.772543e-02 -4.811078e+01) (-3.202256e-05 -5.724324e-05 6.786093e-03) (0.000000e+00 0.000000e+00 0.000000e+00))
5.000000e-02	((1.107491e+02 -2.650710e+02 -1.168098e-02) (4.419314e-02 1.005079e-02 1.659372e-04) (0.000000e+00 0.000000e+00 0.000000e+00)) ((-3.534568e-01 -8.530825e-02 -5.015947e+01) (-3.115538e-05 -6.216095e-05 6.971752e-03) (0.000000e+00 0.000000e+00 0.000000e+00))
5.100000e-02	((1.154935e+02 -2.747140e+02 -1.468185e-02) (4.547594e-02 1.040432e-02 1.808784e-04) (0.000000e+00 0.000000e+00 0.000000e+00)) ((-3.757474e-01 -9.362312e-02 -5.221754e+01) (-3.070493e-05 -6.634680e-05 7.164197e-03) (0.000000e+00 0.000000e+00 0.000000e+00))
5.200000e-02	((1.201631e+02 -2.841588e+02 -1.761226e-02) (4.683135e-02 1.077493e-02 1.981457e-04) (0.000000e+00 0.000000e+00 0.000000e+00)) ((-3.982083e-01 -1.018647e-01 -5.423859e+01) (-3.055431e-05 -7.231741e-05 7.361567e-03) (0.000000e+00 0.000000e+00 0.000000e+00))
5.300000e-02	((1.246590e+02 -2.931473e+02 -2.056963e-02) (4.825780e-02 1.118180e-02 2.149403e-04) (0.000000e+00 0.000000e+00 0.000000e+00)) ((-4.332345e-01 -1.147109e-01 -5.617506e+01) (-2.900764e-05 -7.779610e-05 7.572048e-03) (0.000000e+00 0.000000e+00 0.000000e+00))
5.400000e-02	((1.289206e+02 -3.014491e+02 -2.309971e-02) (4.976680e-02 1.163090e-02 2.255476e-04) (0.000000e+00 0.000000e+00 0.000000e+00)) ((-4.609998e-01 -1.299847e-01 -5.799345e+01) (-2.641387e-05 -8.362591e-05 7.796060e-03) (0.000000e+00 0.000000e+00 0.000000e+00))
5.500000e-02	((1.331214e+02 -3.094147e+02 -2.489188e-02) (5.132323e-02 1.212515e-02 2.358082e-04) (0.000000e+00 0.000000e+00 0.000000e+00)) ((-4.868210e-01 -1.458710e-01 -5.977750e+01) (-2.343818e-05 -8.906029e-05 8.033961e-03) (0.000000e+00 0.000000e+00 0.000000e+00))
5.600000e-02	((1.373255e+02 -3.172702e+02 -2.568775e-02) (5.294770e-02 1.268242e-02 2.465779e-04) (0.000000e+00 0.000000e+00 0.000000e+00)) ((-4.985908e-01 -1.611167e-01 -6.156291e+01) (-1.978517e-05 -9.537095e-05 8.289096e-03) (0.000000e+00 0.000000e+00 0.000000e+00))
5.700000e-02	((1.415910e+02 -3.252427e+02 -2.649027e-02) (5.466011e-02 1.330764e-02 2.451770e-04) (0.000000e+00 0.000000e+00 0.000000e+00)) ((-5.188669e-01 -1.803696e-01 -6.338321e+01) (-1.430470e-05 -1.003744e-04 8.564692e-03) (0.000000e+00 0.000000e+00 0.000000e+00))
5.800000e-02	((1.458655e+02 -3.333100e+02 -2.756571e-02) (5.645404e-02 1.398742e-02 2.500269e-04) (0.000000e+00 0.000000e+00 0.000000e+00)) ((-5.342440e-01 -2.003766e-01 -6.521920e+01) (-9.579841e-06 -1.056542e-04 8.856916e-03) (0.000000e+00 0.000000e+00 0.000000e+00))
5.900000e-02	((1.500059e+02 -3.412780e+02 -2.809244e-02) (5.835643e-02 1.475426e-02 2.508715e-04) (0.000000e+00 0.000000e+00 0.000000e+00)) ((-5.481061e-01 -2.237409e-01 -6.700975e+01) (-5.002435e-06 -1.082325e-04 9.174778e-03) (0.000000e+00 0.000000e+00 0.000000e+00))
6.000000e-02	((1.539415e+02 -3.490627e+02 -2.748719e-02) (6.023856e-02 1.553302e-02 2.578280e-04) (0.000000e+00 0.000000e+00 0.000000e+00)) ((-5.595316e-01 -2.487394e-01 -6.872662e+01) (-2.099574e-06 -1.116878e-04 9.495538e-03) (0.000000e+00 0.000000e+00 0.000000e+00))
6.100000e-02	((1.576252e+02 -3.565303e+02 -2.590945e-02) (6.209232e-02 1.632250e-02 2.646273e-04) (0.000000e+00 0.000000e+00 0.000000e+00)) ((-5.628161e-01 -2.717997e-01 -7.034753e+01) (1.772278e-06 -1.140270e-04 9.820094e-03) (0.000000e+00 0.000000e+00 0.000000e+00))
6.200000e-02	((1.610565e+02 -3.637161e+02 -2.419492e-02) (6.384979e-02 1.709145e-02 2.686907e-04) (0.000000e+00 0.000000e+00 0.000000e+00)) ((-5.524194e-01 -2.912549e-01 -7.187819e+01) (2.951350e-06 -1.157194e-04 1.013889e-02) (0.000000e+00 0.000000e+00 0.000000e+00))
6.300000e-02	((1.642927e+02 -3.707048e+02 -2.232524e-02) (6.550412e-02 1.780942e-02 2.694855e-04) (0.000000e+00 0.000000e+00 0.000000e+00)) ((-5.327985e-01 -3.071943e-01 -7.334543e+01) (5.371923e-06 -1.146928e-04 1.044634e-02) (0.000000e+00 0.000000e+00 0.000000e+00))
6.400000e-02	((1.673378e+02 -3.774864e+02 -1.987398e-02) (6.709352e-02 1.851270e-02 2.788479e-04) (0.000000e+00 0.000000e+00 0.000000e+00)) ((-4.980127e-01 -3.187637e-01 -7.475015e+01) (2.333508e-06 -1.137598e-04 1.075037e-02) (0.000000e+00 0.000000e+00 0.000000e+00))
6.500000e-02	((1.702342e+02 -3.840935e+02 -1.705007e-02) (6.849198e-02 1.914022e-02 2.949905e-04) (0.000000e+00 0.000000e+00 0.000000e+00)) ((-4.532675e-01 -3.228368e-01 -7.610782e+01) (2.542406e-06 -1.167406e-04 1.102452e-02) (0.000000e+00 0.000000e+00 0.000000e+00))
6.600000e-02	((1.730893e+02 -3.907167e+02 -1.334861e-02) (6.974152e-02 1.966484e-02 2.991347e-04) (0.000000e+00 0.000000e+00 0.000000e+00)) ((-4.064176e-01 -3.247195e-01 -7.746687e+01) (4.185347e-06 -1.199950e-04 1.126480e-02) (0.000000e+00 0.000000e+00 0.000000e+00))
6.700000e-02	((1.759185e+02 -3.972286e+02 -8.654129e-03) (7.085635e-02 2.010446e-02 3.081782e-04) (0.000000e+00 0.000000e+00 0.000000e+00)) ((-3.647746e-01 -3.250697e-01 -7.882476e+01) (4.932099e-06 -1.233816e-04 1.147680e-02) (0.000000e+00 0.000000e+00 0.000000e+00))
6.800000e-02	((1.787780e+02 -4.037393e+02 -3.231112e-03) (7.185082e-02 2.050063e-02 3.177981e-04) (0.000000e+00 0.000000e+00 0.000000e+00)) ((-3.243989e-01 -3.243687e-01 -8.020949e+01) (5.697864e-06 -1.295499e-04 1.167015e-02) (0.000000e+00 0.000000e+00 0.000000e+00))
6.900000e-02	((1.817383e+02 -4.103457e+02 2.301787e-03) (7.275221e-02 2.083799e-02 3.282526e-04) (0.000000e+00 0.000000e+00 0.000000e+00)) ((-2.844962e-01 -3.187584e-01 -8.165126e+01) (4.448151e-06 -1.348224e-04 1.184252e-02) (0.000000e+00 0.000000e+00 0.000000e+00))
7.000000e-02	((1.848286e+02 -4.171662e+02 7.707233e-03) (7.356212e-02 2.111593e-02 3.368679e-04) (0.000000e+00 0.000000e+00 0.000000e+00)) ((-2.515731e-01 -3.114342e-01 -8.316823e+01) (4.380247e-06 -1.417246e-04 1.199434e-02) (0.000000e+00 0.000000e+00 0.000000e+00))
7.100000e-02	((1.881152e+02 -4.243464e+02 1.167257e-02) (7.427368e-02 2.136660e-02 3.456663e-04) (0.000000e+00 0.000000e+00 0.000000e+00)) ((-2.295733e-01 -3.030803e-01 -8.478758e+01) (2.785697e-06 -1.474944e-04 1.213142e-02) (0.000000e+00 0.000000e+00 0.000000e+00))
7.200000e-02	((1.915645e+02 -4.318009e+02 1.317220e-02) (7.493309e-02 2.153525e-02 3.512735e-04) (0.000000e+00 0.000000e+00 0.000000e+00)) ((-2.238836e-01 -2.997999e-01 -8.649335e+01) (1.387166e-06 -1.551840e-04 1.224322e-02) (0.000000e+00 0.000000e+00 0.000000e+00))
7.300000e-02	((1.951213e+02 -4.393531e+02 1.391051e-02) (7.552515e-02 2.163693e-02 3.577329e-04) (0.000000e+00 0.000000e+00 0.000000e+00)) ((-2.074395e-01 -2.911689e-01 -8.825100e+01) (-1.678719e-07 -1.631370e-04 1.233097e-02) (0.000000e+00 0.000000e+00 0.000000e+00))
7.400000e-02	((1.986828e+02 -4.469008e+02 1.310918e-02) (7.607425e-02 2.171355e-02 3.625455e-04) (0.000000e+00 0.000000e+00 0.000000e+00)) ((-1.955324e-01 -2.795369e-01 -9.001243e+01) (-4.310521e-07 -1.703799e-04 1.240619e-02) (0.000000e+00 0.000000e+00 0.000000e+00))
7.500000e-02	((2.021990e+02 -4.542026e+02 1.161652e-02) (7.657344e-02 2.170023e-02 3.652944e-04) (0.000000e+00 0.000000e+00 0.000000e+00)) ((-1.645265e-01 -2.581972e-01 -9.174125e+01) (-3.212011e-06 -1.753632e-04 1.245264e-02) (0.000000e+00 0.000000e+00 0.000000e+00))
7.600000e-02	((2.056448e+02 -4.611687e+02 8.615823e-03) (7.705154e-02 2.163916e-02 3.668245e-04) (0.000000e+00 0.000000e+00 0.000000e+00)) ((-1.169560e-01 -2.274262e-01 -9.341790e+01) (-4.942654e-06 -1.795111e-04 1.248265e-02) (0.000000e+00 0.000000e+00 0.000000e+00))
7.700000e-02	((2.088006e+02 -4.672901e+02 6.553285e-03) (7.751693e-02 2.158614e-02 3.648134e-04) (0.000000e+00 0.000000e+00 0.000000e+00)) ((-6.929237e-02 -1.978022e-01 -9.492870e+01) (-5.768561e-06 -1.826956e-04 1.250961e-02) (0.000000e+00 0.000000e+00 0.000000e+00))
7.800000e-02	((2.115774e+02 -4.725470e+02 4.891979e-03) (7.805360e-02 2.151365e-02 3.646941e-04) (0.000000e+00 0.000000e+00 0.000000e+00)) ((-5.292530e-02 -1.811070e-01 -9.623909e+01) (-5.180316e-06 -1.868567e-04 1.253275e-02) (0.000000e+00 0.000000e+00 0.000000e+00))
7.900000e-02	((2.138185e+02 -4.767002e+02 4.632570e-03) (7.864950e-02 2.148941e-02 3.594052e-04) (0.000000e+00 0.000000e+00 0.000000e+00)) ((-5.003565e-02 -1.707887e-01 -9.727682e+01) (-5.910282e-06 -1.921430e-04 1.256978e-02) (0.000000e+00 0.000000e+00 0.000000e+00))
8.000000e-02	((2.154711e+02 -4.797652e+02 3.311637e-03) (7.936711e-02 2.160249e-02 3.563129e-04) (0.000000e+00 0.000000e+00 0.000000e+00)) ((-7.202552e-02 -1.718876e-01 -9.802349e+01) (-5.839870e-07 -2.020188e-04 1.264537e-02) (0.000000e+00 0.000000e+00 0.000000e+00))
8.100000e-02	((2.167053e+02 -4.822691e+02 3.924563e-03) (8.015507e-02 2.176190e-02 3.318650e-04) (0.000000e+00 0.000000e+00 0.000000e+00)) ((-8.262957e-02 -1.630064e-01 -9.857824e+01) (4.734652e-06 -2.029311e-04 1.273801e-02) (0.000000e+00 0.000000e+00 0.000000e+00))
8.200000e-02	((2.177399e+02 -4.847489e+02 4.815011e-03) (8.100816e-02 2.199861e-02 3.164082e-04) (0.000000e+00 0.000000e+00 0.000000e+00)) ((-7.847029e-02 -1.494457e-01 -9.905155e+01) (5.536591e-06 -1.993368e-04 1.285278e-02) (0.000000e+00 0.000000e+00 0.000000e+00))
8.300000e-02	((2.185104e+02 -4.867786e+02 5.664610e-03) (8.178457e-02 2.228756e-02 3.117019e-04) (0.000000e+00 0.000000e+00 0.000000e+00)) ((-7.279405e-02 -1.378743e-01 -9.939269e+01) (3.772341e-06 -1.956618e-04 1.297603e-02) (0.000000e+00 0.000000e+00 0.000000e+00))
8.400000e-02	((2.188588e+02 -4.879531e+02 4.815513e-03) (8.246292e-02 2.253151e-02 3.221680e-04) (0.000000e+00 0.000000e+00 0.000000e+00)) ((-8.365758e-02 -1.361519e-01 -9.952748e+01) (3.027103e-06 -1.988167e-04 1.308526e-02) (0.000000e+00 0.000000e+00 0.000000e+00))
8.500000e-02	((2.188443e+02 -4.882884e+02 4.720153e-03) (8.298534e-02 2.274862e-02 3.321783e-04) (0.000000e+00 0.000000e+00 0.000000e+00)) ((-8.289360e-02 -1.293513e-01 -9.947992e+01) (-8.750748e-07 -2.006064e-04 1.318092e-02) (0.000000e+00 0.000000e+00 0.000000e+00))
8.600000e-02	((2.186194e+02 -4.881146e+02 4.822539e-03) (8.351227e-02 2.303355e-02 3.435973e-04) (0.000000e+00 0.000000e+00 0.000000e+00)) ((-6.025129e-02 -1.104296e-01 -9.932813e+01) (-5.174950e-06 -1.954893e-04 1.329458e-02) (0.000000e+00 0.000000e+00 0.000000e+00))
8.700000e-02	((2.184155e+02 -4.879219e+02 3.756074e-03) (8.399971e-02 2.327438e-02 3.434756e-04) (0.000000e+00 0.000000e+00 0.000000e+00)) ((-2.891985e-02 -8.797124e-02 -9.918715e+01) (-1.096938e-05 -1.885717e-04 1.339825e-02) (0.000000e+00 0.000000e+00 0.000000e+00))
8.800000e-02	((2.184593e+02 -4.882237e+02 1.304970e-03) (8.450328e-02 2.351930e-02 3.560972e-04) (0.000000e+00 0.000000e+00 0.000000e+00)) ((-1.824350e-02 -7.960573e-02 -9.916845e+01) (-1.438067e-05 -1.837481e-04 1.350513e-02) (0.000000e+00 0.000000e+00 0.000000e+00))
8.900000e-02	((2.188025e+02 -4.892130e+02 -4.037791e-04) (8.494190e-02 2.381955e-02 3.766882e-04) (0.000000e+00 0.000000e+00 0.000000e+00)) ((4.304198e-03 -6.888471e-02 -9.930135e+01) (-1.546311e-05 -1.855405e-04 1.362248e-02) (0.000000e+00 0.000000e+00 0.000000e+00))
9.000000e-02	((2.195382e+02 -4.911192e+02 -1.976456e-03) (8.538068e-02 2.406314e-02 3.767780e-04) (0.000000e+00 0.000000e+00 0.000000e+00)) ((6.373082e-03 -7.256530e-02 -9.963395e+01) (-1.676349e-05 -1.808516e-04 1.372595e-02) (0.000000e+00 0.000000e+00 0.000000e+00))
9.100000e-02	((2.207224e+02 -4.939211e+02 -2.616412e-03) (8.575014e-02 2.427777e-02 3.813682e-04) (0.000000e+00 0.000000e+00 0.000000e+00)) ((1.303252e-02 -7.434520e-02 -1.001751e+02) (-2.053276e-05 -1.797427e-04 1.381683e-02) (0.000000e+00 0.000000e+00 0.000000e+00))
9.200000e-02	((2.223544e+02 -4.975720e+02 -1.443167e-03) (8.609060e-02 2.452887e-02 3.922154e-04) (0.000000e+00 0.000000e+00 0.000000e+00)) ((3.308325e-02 -6.265780e-02 -1.009215e+02) (-2.223940e-05 -1.823255e-04 1.391205e-02) (0.000000e+00 0.000000e+00 0.000000e+00))
9.300000e-02	((2.244281e+02 -5.020137e+02 9.501905e-04) (8.640282e-02 2.469152e-02 3.951397e-04) (0.000000e+00 0.000000e+00 0.000000e+00)) ((6.186901e-02 -4.233369e-02 -1.018698e+02) (-2.585737e-05 -1.804287e-04 1.398198e-02) (0.000000e+00 0.000000e+00 0.000000e+00))
9.400000e-02	((2.268320e+02 -5.070663e+02 4.134379e-03) (8.667365e-02 2.480706e-02 4.159216e-04) (0.000000e+00 0.000000e+00 0.000000e+00)) ((8.577669e-02 -1.981086e-02 -1.029710e+02) (-2.695457e-05 -1.853654e-04 1.403505e-02) (0.000000e+00 0.000000e+00 0.000000e+00))
9.500000e-02	((2.294611e+02 -5.125015e+02 9.342117e-03) (8.690872e-02 2.495786e-02 4.367006e-04) (0.000000e+00 0.000000e+00 0.000000e+00)) ((1.262794e-01 1.284140e-02 -1.041739e+02) (-2.652565e-05 -1.876495e-04 1.409140e-02) (0.000000e+00 0.000000e+00 0.000000e+00))
9.600000e-02	((2.321132e+02 -5.180039e+02 1.252205e-02) (8.713120e-02 2.502214e-02 4.515569e-04) (0.000000e+00 0.000000e+00 0.000000e+00)) ((1.603177e-01 4.307589e-02 -1.053965e+02) (-2.625209e-05 -1.893741e-04 1.412475e-02) (0.000000e+00 0.000000e+00 0.000000e+00))
9.700000e-02	((2.349181e+02 -5.237936e+02 1.624353e-02) (8.734350e-02 2.508553e-02 4.645678e-04) (0.000000e+00 0.000000e+00 0.000000e+00)) ((1.953584e-01 7.223655e-02 -1.066938e+02) (-2.917047e-05 -1.917999e-04 1.415757e-02) (0.000000e+00 0.000000e+00 0.000000e+00))
9.800000e-02	((2.378242e+02 -5.298544e+02 2.191000e-02) (8.753705e-02 2.521665e-02 4.828121e-04) (0.000000e+00 0.000000e+00 0.000000e+00)) ((2.246898e-01 1.007096e-01 -1.080482e+02) (-2.786605e-05 -1.935682e-04 1.420626e-02) (0.000000e+00 0.000000e+00 0.000000e+00))
9.900000e-02	((2.405657e+02 -5.358578e+02 2.730518e-02) (8.773748e-02 2.529009e-02 4.991277e-04) (0.000000e+00 0.000000e+00 0.000000e+00)) ((2.281238e-01 1.159711e-01 -1.093540e+02) (-3.151670e-05 -1.936336e-04 1.424289e-02) (0.000000e+00 0.000000e+00 0.000000e+00))
1.000000e-01	((2.432644e+02 -5.419736e+02 2.875205e-02) (8.792456e-02 2.535771e-02 5.158138e-04) (0.000000e+00 0.000000e+00 0.000000e+00)) ((2.013829e-01 1.131925e-01 -1.106622e+02) (-3.580476e-05 -1.950280e-04 1.427760e-02) (0.000000e+00 0.000000e+00 0.000000e+00))
1.010000e-01	((2.459658e+02 -5.481882e+02 2.787654e-02) (8.812389e-02 2.548519e-02 5.276876e-04) (0.000000e+00 0.000000e+00 0.000000e+00)) ((1.516600e-01 9.262953e-02 -1.119853e+02) (-3.964671e-05 -1.914092e-04 1.432935e-02) (0.000000e+00 0.000000e+00 0.000000e+00))
1.020000e-01	((2.487487e+02 -5.545427e+02 2.711545e-02) (8.833612e-02 2.554180e-02 5.406777e-04) (0.000000e+00 0.000000e+00 0.000000e+00)) ((9.193602e-02 6.359488e-02 -1.133525e+02) (-4.390882e-05 -1.891659e-04 1.436621e-02) (0.000000e+00 0.000000e+00 0.000000e+00))
1.030000e-01	((2.515651e+02 -5.608530e+02 2.737172e-02) (8.855921e-02 2.559300e-02 5.403521e-04) (0.000000e+00 0.000000e+00 0.000000e+00)) ((2.915410e-02 3.174402e-02 -1.147287e+02) (-5.362023e-05 -1.798436e-04 1.440267e-02) (0.000000e+00 0.000000e+00 0.000000e+00))
1.040000e-01	((2.544725e+02 -5.672975e+02 2.614446e-02) (8.881290e-02 2.568381e-02 5.450253e-04) (0.000000e+00 0.000000e+00 0.000000e+00)) ((-3.517513e-02 -1.105121e-03 -1.161427e+02) (-6.008795e-05 -1.730619e-04 1.444958e-02) (0.000000e+00 0.000000e+00 0.000000e+00))
1.050000e-01	((2.575174e+02 -5.738998e+02 2.602340e-02) (8.911636e-02 2.571878e-02 5.494427e-04) (0.000000e+00 0.000000e+00 0.000000e+00)) ((-8.939661e-02 -3.108653e-02 -1.176104e+02) (-6.810724e-05 -1.673507e-04 1.448617e-02) (0.000000e+00 0.000000e+00 0.000000e+00))
1.060000e-01	((2.606482e+02 -5.804686e+02 2.345892e-02) (8.945066e-02 2.575020e-02 5.381931e-04) (0.000000e+00 0.000000e+00 0.000000e+00)) ((-1.353486e-01 -6.086358e-02 -1.191003e+02) (-7.295274e-05 -1.555340e-04 1.452159e-02) (0.000000e+00 0.000000e+00 0.000000e+00))
1.070000e-01	((2.640069e+02 -5.871494e+02 1.980556e-02) (8.981911e-02 2.581008e-02 5.335980e-04) (0.000000e+00 0.000000e+00 0.000000e+00)) ((-1.657543e-01 -8.375342e-02 -1.206664e+02) (-7.765026e-05 -1.472001e-04 1.456528e-02) (0.000000e+00 0.000000e+00 0.000000e+00))
1.080000e-01	((2.675459e+02 -5.938622e+02 1.556167e-02) (9.022090e-02 2.580508e-02 5.276239e-04) (0.000000e+00 0.000000e+00 0.000000e+00)) ((-1.769751e-01 -9.222851e-02 -1.222901e+02) (-8.199842e-05 -1.381724e-04 1.459250e-02) (0.000000e+00 0.000000e+00 0.000000e+00))
1.090000e-01	((2.711367e+02 -6.004265e+02 1.131822e-02) (9.064958e-02 2.579889e-02 5.249670e-04) (0.000000e+00 0.000000e+00 0.000000e+00)) ((-1.949135e-01 -9.865006e-02 -1.239110e+02) (-9.405273e-05 -1.310271e-04 1.461958e-02) (0.000000e+00 0.000000e+00 0.000000e+00))
1.100000e-01	((2.746976e+02 -6.067384e+02 5.190630e-03) (9.105019e-02 2.583506e-02 5.313262e-04) (0.000000e+00 0.000000e+00 0.000000e+00)) ((-2.258679e-01 -1.071964e-01 -1.254948e+02) (-9.633949e-05 -1.359426e-04 1.465240e-02) (0.000000e+00 0.000000e+00 0.000000e+00))
1.110000e-01	((2.779952e+02 -6.123644e+02 -8.475639e-04) (9.140601e-02 2.580510e-02 5.178617e-04) (0.000000e+00 0.000000e+00 0.000000e+00)) ((-2.438357e-01 -1.083167e-01 -1.269372e+02) (-1.033144e-04 -1.276364e-04 1.466575e-02) (0.000000e+00 0.000000e+00 0.000000e+00))