# Forces     
# CofR       : (0.000000e+00 0.000000e+00 0.000000e+00)
# Time       forces(pressure viscous porous) moment(pressure viscous porous)
1.000000e-03	((1.075423e+00 -1.667880e+00 -9.158031e-05) (5.953316e-03 -7.073045e-05 4.950287e-07) (0.000000e+00 0.000000e+00 0.000000e+00)) ((1.030328e-04 2.799598e-05 -4.486004e-01) (-1.338179e-07 -1.155263e-06 1.152854e-04) (0.000000e+00 0.000000e+00 0.000000e+00))
2.000000e-03	((4.242170e+00 -6.733288e+00 -3.099146e-04) (6.129574e-03 1.022510e-03 1.497856e-06) (0.000000e+00 0.000000e+00 0.000000e+00)) ((-3.075138e-04 -1.806304e-04 -1.709420e+00) (-4.364199e-07 -2.384317e-06 5.400570e-04) (0.000000e+00 0.000000e+00 0.000000e+00))
3.000000e-03	((6.258625e+00 -1.040760e+01 -2.717488e-04) (7.118822e-03 2.064513e-03 -3.540964e-06) (0.000000e+00 0.000000e+00 0.000000e+00)) ((-9.546524e-04 -6.961168e-04 -2.510722e+00) (-3.692415e-06 -3.043236e-07 9.543720e-04) (0.000000e+00 0.000000e+00 0.000000e+00))
4.000000e-03	((6.599624e+00 -1.159539e+01 -2.312723e-04) (8.891300e-03 3.145110e-03 -5.718865e-06) (0.000000e+00 0.000000e+00 0.000000e+00)) ((2.167137e-03 1.235868e-05 -2.649406e+00) (-2.732920e-06 -2.310610e-06 1.402725e-03) (0.000000e+00 0.000000e+00 0.000000e+00))
5.000000e-03	((6.224282e+00 -1.181093e+01 -1.441773e-03) (1.034937e-02 3.872413e-03 -7.992684e-06) (0.000000e+00 0.000000e+00 0.000000e+00)) ((1.005691e-02 2.239225e-03 -2.518524e+00) (1.601018e-08 1.923954e-07 1.754702e-03) (0.000000e+00 0.000000e+00 0.000000e+00))
6.000000e-03	((5.964969e+00 -1.237979e+01 -1.844787e-03) (1.148463e-02 4.357412e-03 -1.444170e-05) (0.000000e+00 0.000000e+00 0.000000e+00)) ((1.937311e-02 5.529864e-03 -2.467376e+00) (4.336490e-07 6.584309e-06 1.986636e-03) (0.000000e+00 0.000000e+00 0.000000e+00))
7.000000e-03	((6.128906e+00 -1.366185e+01 -1.143646e-03) (1.236673e-02 4.676003e-03 -1.668491e-05) (0.000000e+00 0.000000e+00 0.000000e+00)) ((2.277167e-02 6.079543e-03 -2.611281e+00) (-1.065863e-06 9.638065e-06 2.148388e-03) (0.000000e+00 0.000000e+00 0.000000e+00))
8.000000e-03	((6.919492e+00 -1.595367e+01 -5.949402e-05) (1.311157e-02 4.912689e-03 -1.906224e-05) (0.000000e+00 0.000000e+00 0.000000e+00)) ((2.296002e-02 5.337752e-03 -3.018789e+00) (-1.108915e-06 1.161017e-05 2.267830e-03) (0.000000e+00 0.000000e+00 0.000000e+00))
9.000000e-03	((8.180120e+00 -1.898522e+01 9.938477e-04) (1.378585e-02 5.069164e-03 -1.252721e-05) (0.000000e+00 0.000000e+00 0.000000e+00)) ((2.148807e-02 4.277954e-03 -3.614393e+00) (-6.300052e-07 8.884650e-06 2.361882e-03) (0.000000e+00 0.000000e+00 0.000000e+00))
1.000000e-02	((9.587225e+00 -2.220213e+01 1.637522e-03) (1.444165e-02 5.194140e-03 -1.407299e-05) (0.000000e+00 0.000000e+00 0.000000e+00)) ((1.876633e-02 4.162461e-03 -4.260134e+00) (-1.426898e-06 7.135550e-06 2.451394e-03) (0.000000e+00 0.000000e+00 0.000000e+00))
1.100000e-02	((1.082313e+01 -2.512892e+01 1.824586e-03) (1.509378e-02 5.280497e-03 -1.461549e-05) (0.000000e+00 0.000000e+00 0.000000e+00)) ((1.765391e-02 4.660065e-03 -4.827018e+00) (-2.689933e-06 9.599953e-06 2.537271e-03) (0.000000e+00 0.000000e+00 0.000000e+00))
1.200000e-02	((1.198563e+01 -2.792806e+01 9.584495e-04) (1.573955e-02 5.360391e-03 -1.847135e-05) (0.000000e+00 0.000000e+00 0.000000e+00)) ((1.985843e-02 7.463526e-03 -5.356353e+00) (-4.040447e-06 1.041957e-05 2.621330e-03) (0.000000e+00 0.000000e+00 0.000000e+00))
1.300000e-02	((1.305218e+01 -3.063200e+01 6.083269e-05) (1.639546e-02 5.434607e-03 -1.864306e-05) (0.000000e+00 0.000000e+00 0.000000e+00)) ((2.728908e-02 1.143708e-02 -5.846840e+00) (-3.058033e-06 1.086350e-05 2.710694e-03) (0.000000e+00 0.000000e+00 0.000000e+00))
1.400000e-02	((1.411410e+01 -3.338554e+01 -7.101097e-04) (1.705088e-02 5.546435e-03 -2.699743e-05) (0.000000e+00 0.000000e+00 0.000000e+00)) ((2.895121e-02 1.325606e-02 -6.338341e+00) (-3.242683e-06 1.138176e-05 2.808481e-03) (0.000000e+00 0.000000e+00 0.000000e+00))
1.500000e-02	((1.531142e+01 -3.640651e+01 -5.015419e-04) (1.771167e-02 5.659203e-03 -3.369100e-05) (0.000000e+00 0.000000e+00 0.000000e+00)) ((2.862579e-02 1.325204e-02 -6.887704e+00) (-2.718328e-06 1.380342e-05 2.907644e-03) (0.000000e+00 0.000000e+00 0.000000e+00))
1.600000e-02	((1.679430e+01 -4.001833e+01 -1.976086e-05) (1.838760e-02 5.788926e-03 -4.217443e-05) (0.000000e+00 0.000000e+00 0.000000e+00)) ((2.135622e-02 1.052972e-02 -7.560897e+00) (-2.846629e-06 1.657046e-05 3.009946e-03) (0.000000e+00 0.000000e+00 0.000000e+00))
1.700000e-02	((1.857786e+01 -4.431498e+01 1.163697e-03) (1.909952e-02 5.918138e-03 -4.561616e-05) (0.000000e+00 0.000000e+00 0.000000e+00)) ((1.691214e-02 7.743578e-03 -8.370596e+00) (-2.030906e-06 1.803485e-05 3.113224e-03) (0.000000e+00 0.000000e+00 0.000000e+00))
1.800000e-02	((2.061591e+01 -4.923393e+01 1.995248e-03) (1.984126e-02 6.048969e-03 -4.880694e-05) (0.000000e+00 0.000000e+00 0.000000e+00)) ((1.488330e-02 6.276450e-03 -9.298761e+00) (-2.524546e-06 1.839456e-05 3.216727e-03) (0.000000e+00 0.000000e+00 0.000000e+00))
1.900000e-02	((2.272068e+01 -5.445414e+01 2.789067e-03) (2.058874e-02 6.162527e-03 -4.943605e-05) (0.000000e+00 0.000000e+00 0.000000e+00)) ((1.548155e-02 6.376159e-03 -1.026638e+01) (-2.451778e-06 1.903118e-05 3.316406e-03) (0.000000e+00 0.000000e+00 0.000000e+00))
2.000000e-02	((2.480905e+01 -5.978585e+01 3.144745e-03) (2.132272e-02 6.263746e-03 -5.068845e-05) (0.000000e+00 0.000000e+00 0.000000e+00)) ((2.087457e-02 7.387100e-03 -1.123818e+01) (-2.880327e-06 2.004577e-05 3.412466e-03) (0.000000e+00 0.000000e+00 0.000000e+00))
2.100000e-02	((2.678340e+01 -6.502865e+01 2.673569e-03) (2.202841e-02 6.351097e-03 -5.061560e-05) (0.000000e+00 0.000000e+00 0.000000e+00)) ((2.576477e-02 9.418876e-03 -1.217180e+01) (-2.573785e-06 1.909059e-05 3.505704e-03) (0.000000e+00 0.000000e+00 0.000000e+00))
2.200000e-02	((2.861397e+01 -7.007161e+01 1.403661e-03) (2.269571e-02 6.427005e-03 -5.168683e-05) (0.000000e+00 0.000000e+00 0.000000e+00)) ((3.102596e-02 1.186364e-02 -1.305012e+01) (-2.264025e-06 1.838214e-05 3.594686e-03) (0.000000e+00 0.000000e+00 0.000000e+00))
2.300000e-02	((3.038944e+01 -7.504988e+01 3.458584e-04) (2.332814e-02 6.498393e-03 -5.230499e-05) (0.000000e+00 0.000000e+00 0.000000e+00)) ((3.368689e-02 1.356403e-02 -1.391184e+01) (-2.894476e-06 1.794796e-05 3.681910e-03) (0.000000e+00 0.000000e+00 0.000000e+00))
2.400000e-02	((3.224295e+01 -8.020483e+01 -4.961157e-04) (2.392236e-02 6.563192e-03 -5.627923e-05) (0.000000e+00 0.000000e+00 0.000000e+00)) ((3.683248e-02 1.464466e-02 -1.481206e+01) (-3.191766e-06 1.815376e-05 3.766689e-03) (0.000000e+00 0.000000e+00 0.000000e+00))
2.500000e-02	((3.435566e+01 -8.587798e+01 -8.471826e-04) (2.449188e-02 6.632401e-03 -6.003908e-05) (0.000000e+00 0.000000e+00 0.000000e+00)) ((4.252946e-02 1.724665e-02 -1.582646e+01) (-3.591613e-06 1.796561e-05 3.852682e-03) (0.000000e+00 0.000000e+00 0.000000e+00))
2.600000e-02	((3.676670e+01 -9.211953e+01 -7.631598e-04) (2.504083e-02 6.700812e-03 -6.320577e-05) (0.000000e+00 0.000000e+00 0.000000e+00)) ((5.371434e-02 2.166305e-02 -1.696905e+01) (-3.601511e-06 1.815067e-05 3.938606e-03) (0.000000e+00 0.000000e+00 0.000000e+00))
2.700000e-02	((3.944575e+01 -9.892161e+01 -1.498297e-03) (2.557985e-02 6.756924e-03 -6.875863e-05) (0.000000e+00 0.000000e+00 0.000000e+00)) ((5.685502e-02 2.493284e-02 -1.822672e+01) (-4.118559e-06 1.960703e-05 4.021677e-03) (0.000000e+00 0.000000e+00 0.000000e+00))
2.800000e-02	((4.235386e+01 -1.062622e+02 -2.442411e-03) (2.607599e-02 6.789453e-03 -7.320111e-05) (0.000000e+00 0.000000e+00 0.000000e+00)) ((6.454479e-02 2.980040e-02 -1.958345e+01) (-4.621824e-06 2.107327e-05 4.097016e-03) (0.000000e+00 0.000000e+00 0.000000e+00))
2.900000e-02	((4.540138e+01 -1.139689e+02 -2.748161e-03) (2.653598e-02 6.783872e-03 -7.784396e-05) (0.000000e+00 0.000000e+00 0.000000e+00)) ((7.068438e-02 3.368156e-02 -2.100027e+01) (-5.997847e-06 2.338021e-05 4.161623e-03) (0.000000e+00 0.000000e+00 0.000000e+00))
3.000000e-02	((4.849274e+01 -1.218037e+02 -3.014395e-03) (2.690236e-02 6.738621e-03 -8.482170e-05) (0.000000e+00 0.000000e+00 0.000000e+00)) ((6.940740e-02 3.416689e-02 -2.243180e+01) (-6.241042e-06 2.687580e-05 4.213068e-03) (0.000000e+00 0.000000e+00 0.000000e+00))
3.100000e-02	((5.156997e+01 -1.296182e+02 -2.476227e-03) (2.721857e-02 6.689436e-03 -9.266869e-05) (0.000000e+00 0.000000e+00 0.000000e+00)) ((5.286950e-02 2.760487e-02 -2.385445e+01) (-7.559889e-06 3.064802e-05 4.262462e-03) (0.000000e+00 0.000000e+00 0.000000e+00))
3.200000e-02	((5.471927e+01 -1.375720e+02 -6.988443e-04) (2.753330e-02 6.642309e-03 -1.008449e-04) (0.000000e+00 0.000000e+00 0.000000e+00)) ((3.471607e-02 1.889951e-02 -2.530851e+01) (-8.318171e-06 3.308913e-05 4.312509e-03) (0.000000e+00 0.000000e+00 0.000000e+00))
3.300000e-02	((5.793298e+01 -1.456347e+02 7.271415e-04) (2.784283e-02 6.601310e-03 -1.031715e-04) (0.000000e+00 0.000000e+00 0.000000e+00)) ((2.487588e-02 1.497249e-02 -2.678750e+01) (-8.405741e-06 3.358134e-05 4.364391e-03) (0.000000e+00 0.000000e+00 0.000000e+00))
3.400000e-02	((6.129499e+01 -1.539584e+02 7.738790e-04) (2.820340e-02 6.607588e-03 -1.059186e-04) (0.000000e+00 0.000000e+00 0.000000e+00)) ((1.515850e-02 1.316224e-02 -2.832948e+01) (-7.895168e-06 3.095688e-05 4.428932e-03) (0.000000e+00 0.000000e+00 0.000000e+00))
3.500000e-02	((6.471865e+01 -1.623625e+02 -2.081367e-04) (2.866355e-02 6.652180e-03 -1.145312e-04) (0.000000e+00 0.000000e+00 0.000000e+00)) ((-3.132688e-03 8.895764e-03 -2.989146e+01) (-8.141494e-06 3.158846e-05 4.508301e-03) (0.000000e+00 0.000000e+00 0.000000e+00))
3.600000e-02	((6.827939e+01 -1.709625e+02 -7.412438e-04) (2.906887e-02 6.717116e-03 -1.242506e-04) (0.000000e+00 0.000000e+00 0.000000e+00)) ((-2.336623e-02 1.044343e-03 -3.150526e+01) (-7.329645e-06 3.243468e-05 4.585111e-03) (0.000000e+00 0.000000e+00 0.000000e+00))
3.700000e-02	((7.195101e+01 -1.797812e+02 -1.187056e-03) (2.954105e-02 6.798373e-03 -1.218239e-04) (0.000000e+00 0.000000e+00 0.000000e+00)) ((-4.114326e-02 -6.455755e-03 -3.316555e+01) (-8.848549e-06 2.712164e-05 4.670547e-03) (0.000000e+00 0.000000e+00 0.000000e+00))
3.800000e-02	((7.584315e+01 -1.890071e+02 -9.833574e-04) (3.010126e-02 6.896653e-03 -1.270361e-04) (0.000000e+00 0.000000e+00 0.000000e+00)) ((-5.694338e-02 -1.307938e-02 -3.491946e+01) (-9.279855e-06 2.393509e-05 4.765589e-03) (0.000000e+00 0.000000e+00 0.000000e+00))
3.900000e-02	((7.987136e+01 -1.985438e+02 -5.059969e-04) (3.075273e-02 7.003183e-03 -1.315443e-04) (0.000000e+00 0.000000e+00 0.000000e+00)) ((-5.936252e-02 -1.423932e-02 -3.673294e+01) (-9.055130e-06 2.176010e-05 4.870505e-03) (0.000000e+00 0.000000e+00 0.000000e+00))
4.000000e-02	((8.404507e+01 -2.083821e+02 1.232234e-03) (3.144880e-02 7.128713e-03 -1.288809e-04) (0.000000e+00 0.000000e+00 0.000000e+00)) ((-5.883221e-02 -1.742158e-02 -3.861089e+01) (-7.621533e-06 1.650443e-05 4.980956e-03) (0.000000e+00 0.000000e+00 0.000000e+00))
4.100000e-02	((8.827307e+01 -2.183817e+02 2.044203e-03) (3.218317e-02 7.266877e-03 -1.220989e-04) (0.000000e+00 0.000000e+00 0.000000e+00)) ((-7.798529e-02 -2.693211e-02 -4.051379e+01) (-6.635525e-06 8.995104e-06 5.097061e-03) (0.000000e+00 0.000000e+00 0.000000e+00))
4.200000e-02	((9.259687e+01 -2.285324e+02 3.597514e-03) (3.295704e-02 7.433451e-03 -1.176669e-04) (0.000000e+00 0.000000e+00 0.000000e+00)) ((-9.544428e-02 -3.727982e-02 -4.246169e+01) (-5.103440e-06 3.359760e-06 5.219800e-03) (0.000000e+00 0.000000e+00 0.000000e+00))
4.300000e-02	((9.694026e+01 -2.386744e+02 4.710572e-03) (3.375715e-02 7.612218e-03 -1.078427e-04) (0.000000e+00 0.000000e+00 0.000000e+00)) ((-1.128351e-01 -5.006616e-02 -4.441755e+01) (-4.520144e-06 -4.006401e-06 5.347185e-03) (0.000000e+00 0.000000e+00 0.000000e+00))
4.400000e-02	((1.013292e+02 -2.487737e+02 6.511518e-03) (3.459232e-02 7.821002e-03 -1.025145e-04) (0.000000e+00 0.000000e+00 0.000000e+00)) ((-1.126457e-01 -5.696216e-02 -4.639211e+01) (-3.535884e-06 -9.793744e-06 5.481324e-03) (0.000000e+00 0.000000e+00 0.000000e+00))
4.500000e-02	((1.056969e+02 -2.585878e+02 7.095525e-03) (3.546284e-02 8.043412e-03 -9.419108e-05) (0.000000e+00 0.000000e+00 0.000000e+00)) ((-1.187524e-01 -6.537159e-02 -4.834920e+01) (-1.255338e-06 -1.732774e-05 5.620108e-03) (0.000000e+00 0.000000e+00 0.000000e+00))
4.600000e-02	((1.101083e+02 -2.683240e+02 8.563911e-03) (3.637190e-02 8.295881e-03 -8.677276e-05) (0.000000e+00 0.000000e+00 0.000000e+00)) ((-1.276468e-01 -7.734204e-02 -5.032302e+01) (1.840114e-07 -2.354343e-05 5.766462e-03) (0.000000e+00 0.000000e+00 0.000000e+00))
4.700000e-02	((1.145362e+02 -2.778845e+02 8.895109e-03) (3.732125e-02 8.561187e-03 -7.585156e-05) (0.000000e+00 0.000000e+00 0.000000e+00)) ((-1.271426e-01 -8.351849e-02 -5.229556e+01) (9.402983e-07 -3.057892e-05 5.917193e-03) (0.000000e+00 0.000000e+00 0.000000e+00))
4.800000e-02	((1.189647e+02 -2.872713e+02 9.658238e-03) (3.831604e-02 8.855241e-03 -6.660135e-05) (0.000000e+00 0.000000e+00 0.000000e+00)) ((-1.165213e-01 -8.607571e-02 -5.426289e+01) (1.991374e-06 -3.768774e-05 6.075423e-03) (0.000000e+00 0.000000e+00 0.000000e+00))
4.900000e-02	((1.233327e+02 -2.963611e+02 1.126288e-02) (3.935105e-02 9.167074e-03 -5.919837e-05) (0.000000e+00 0.000000e+00 0.000000e+00)) ((-1.064017e-01 -8.791470e-02 -5.619595e+01) (2.625875e-06 -4.499398e-05 6.239371e-03) (0.000000e+00 0.000000e+00 0.000000e+00))
5.000000e-02	((1.276231e+02 -3.050990e+02 1.338534e-02) (4.042433e-02 9.507847e-03 -4.990978e-05) (0.000000e+00 0.000000e+00 0.000000e+00)) ((-1.061362e-01 -9.675570e-02 -5.808661e+01) (3.582886e-06 -5.271212e-05 6.410412e-03) (0.000000e+00 0.000000e+00 0.000000e+00))
5.100000e-02	((1.317250e+02 -3.132476e+02 1.581669e-02) (4.152464e-02 9.864243e-03 -4.391612e-05) (0.000000e+00 0.000000e+00 0.000000e+00)) ((-9.291201e-02 -9.793078e-02 -5.988297e+01) (4.422160e-06 -5.914405e-05 6.586028e-03) (0.000000e+00 0.000000e+00 0.000000e+00))
5.200000e-02	((1.356066e+02 -3.206957e+02 1.842400e-02) (4.265336e-02 1.025499e-02 -3.926693e-05) (0.000000e+00 0.000000e+00 0.000000e+00)) ((-8.447931e-02 -1.004001e-01 -6.156642e+01) (6.939374e-06 -6.721223e-05 6.769250e-03) (0.000000e+00 0.000000e+00 0.000000e+00))
5.300000e-02	((1.392022e+02 -3.272212e+02 2.092480e-02) (4.380256e-02 1.067107e-02 -3.596587e-05) (0.000000e+00 0.000000e+00 0.000000e+00)) ((-7.130093e-02 -9.818924e-02 -6.310136e+01) (8.789878e-06 -7.487609e-05 6.958359e-03) (0.000000e+00 0.000000e+00 0.000000e+00))
5.400000e-02	((1.424548e+02 -3.326622e+02 2.411823e-02) (4.497374e-02 1.112969e-02 -3.374049e-05) (0.000000e+00 0.000000e+00 0.000000e+00)) ((-6.390866e-02 -9.707213e-02 -6.445874e+01) (1.197520e-05 -8.240966e-05 7.156496e-03) (0.000000e+00 0.000000e+00 0.000000e+00))
5.500000e-02	((1.453622e+02 -3.369978e+02 2.793804e-02) (4.617056e-02 1.161065e-02 -3.135340e-05) (0.000000e+00 0.000000e+00 0.000000e+00)) ((-6.390355e-02 -9.724846e-02 -6.563636e+01) (1.387208e-05 -8.908165e-05 7.359275e-03) (0.000000e+00 0.000000e+00 0.000000e+00))
5.600000e-02	((1.478979e+02 -3.401046e+02 3.162288e-02) (4.740232e-02 1.214118e-02 -2.669723e-05) (0.000000e+00 0.000000e+00 0.000000e+00)) ((-6.282947e-02 -9.579059e-02 -6.661676e+01) (1.636837e-05 -9.570009e-05 7.572581e-03) (0.000000e+00 0.000000e+00 0.000000e+00))
5.700000e-02	((1.501709e+02 -3.422213e+02 3.523344e-02) (4.867029e-02 1.269994e-02 -2.516569e-05) (0.000000e+00 0.000000e+00 0.000000e+00)) ((-6.853914e-02 -9.498777e-02 -6.745064e+01) (1.880067e-05 -1.032182e-04 7.792753e-03) (0.000000e+00 0.000000e+00 0.000000e+00))
5.800000e-02	((1.522531e+02 -3.435463e+02 3.856251e-02) (4.997366e-02 1.330209e-02 -1.920772e-05) (0.000000e+00 0.000000e+00 0.000000e+00)) ((-7.565767e-02 -9.365940e-02 -6.817425e+01) (2.325848e-05 -1.099965e-04 8.022756e-03) (0.000000e+00 0.000000e+00 0.000000e+00))
5.900000e-02	((1.541491e+02 -3.441616e+02 4.005933e-02) (5.131709e-02 1.392670e-02 -4.026672e-06) (0.000000e+00 0.000000e+00 0.000000e+00)) ((-8.607677e-02 -8.969329e-02 -6.879509e+01) (2.510157e-05 -1.193388e-04 8.258593e-03) (0.000000e+00 0.000000e+00 0.000000e+00))
6.000000e-02	((1.558365e+02 -3.440832e+02 4.288333e-02) (5.268866e-02 1.458392e-02 1.256394e-05) (0.000000e+00 0.000000e+00 0.000000e+00)) ((-9.406901e-02 -8.620922e-02 -6.930601e+01) (2.832302e-05 -1.286811e-04 8.500505e-03) (0.000000e+00 0.000000e+00 0.000000e+00))
6.100000e-02	((1.573169e+02 -3.434102e+02 4.509520e-02) (5.409910e-02 1.525354e-02 3.214234e-05) (0.000000e+00 0.000000e+00 0.000000e+00)) ((-1.087922e-01 -8.451044e-02 -6.971535e+01) (2.970703e-05 -1.371823e-04 8.745302e-03) (0.000000e+00 0.000000e+00 0.000000e+00))
6.200000e-02	((1.586033e+02 -3.422278e+02 4.898186e-02) (5.554531e-02 1.594544e-02 4.985958e-05) (0.000000e+00 0.000000e+00 0.000000e+00)) ((-1.204459e-01 -8.284829e-02 -7.003099e+01) (3.218573e-05 -1.455570e-04 8.994372e-03) (0.000000e+00 0.000000e+00 0.000000e+00))
6.300000e-02	((1.596869e+02 -3.405928e+02 5.154157e-02) (5.702910e-02 1.664660e-02 7.948322e-05) (0.000000e+00 0.000000e+00 0.000000e+00)) ((-1.424866e-01 -8.418411e-02 -7.025424e+01) (3.225458e-05 -1.569445e-04 9.246026e-03) (0.000000e+00 0.000000e+00 0.000000e+00))
6.400000e-02	((1.606137e+02 -3.386407e+02 5.357889e-02) (5.855507e-02 1.737160e-02 9.609737e-05) (0.000000e+00 0.000000e+00 0.000000e+00)) ((-1.779890e-01 -9.286897e-02 -7.040727e+01) (3.524170e-05 -1.664201e-04 9.502069e-03) (0.000000e+00 0.000000e+00 0.000000e+00))
6.500000e-02	((1.614031e+02 -3.365011e+02 5.513750e-02) (6.012440e-02 1.811201e-02 1.096817e-04) (0.000000e+00 0.000000e+00 0.000000e+00)) ((-2.198082e-01 -1.016727e-01 -7.050787e+01) (3.768978e-05 -1.768410e-04 9.761509e-03) (0.000000e+00 0.000000e+00 0.000000e+00))
6.600000e-02	((1.620917e+02 -3.343342e+02 5.656943e-02) (6.170316e-02 1.887178e-02 1.227686e-04) (0.000000e+00 0.000000e+00 0.000000e+00)) ((-2.562665e-01 -1.072308e-01 -7.057646e+01) (4.168093e-05 -1.860524e-04 1.002246e-02) (0.000000e+00 0.000000e+00 0.000000e+00))
6.700000e-02	((1.626891e+02 -3.322316e+02 5.569249e-02) (6.328148e-02 1.961494e-02 1.388744e-04) (0.000000e+00 0.000000e+00 0.000000e+00)) ((-2.862222e-01 -1.106989e-01 -7.061906e+01) (4.498110e-05 -1.953207e-04 1.027846e-02) (0.000000e+00 0.000000e+00 0.000000e+00))
6.800000e-02	((1.632771e+02 -3.303515e+02 5.572374e-02) (6.485321e-02 2.035494e-02 1.600895e-04) (0.000000e+00 0.000000e+00 0.000000e+00)) ((-3.082486e-01 -1.095287e-01 -7.067403e+01) (4.682478e-05 -2.077246e-04 1.053126e-02) (0.000000e+00 0.000000e+00 0.000000e+00))
6.900000e-02	((1.638290e+02 -3.286306e+02 5.477093e-02) (6.644047e-02 2.106579e-02 1.757816e-04) (0.000000e+00 0.000000e+00 0.000000e+00)) ((-3.341376e-01 -1.128684e-01 -7.073197e+01) (4.929541e-05 -2.178719e-04 1.077927e-02) (0.000000e+00 0.000000e+00 0.000000e+00))
7.000000e-02	((1.643144e+02 -3.269208e+02 5.275040e-02) (6.804685e-02 2.177579e-02 1.838297e-04) (0.000000e+00 0.000000e+00 0.000000e+00)) ((-3.635221e-01 -1.197476e-01 -7.077312e+01) (5.237496e-05 -2.288969e-04 1.102741e-02) (0.000000e+00 0.000000e+00 0.000000e+00))
7.100000e-02	((1.647851e+02 -3.253658e+02 5.203604e-02) (6.966688e-02 2.247558e-02 2.002938e-04) (0.000000e+00 0.000000e+00 0.000000e+00)) ((-4.007662e-01 -1.349160e-01 -7.082219e+01) (5.416398e-05 -2.375786e-04 1.127282e-02) (0.000000e+00 0.000000e+00 0.000000e+00))
7.200000e-02	((1.653881e+02 -3.243007e+02 5.158250e-02) (7.130943e-02 2.317082e-02 2.213988e-04) (0.000000e+00 0.000000e+00 0.000000e+00)) ((-4.366743e-01 -1.527045e-01 -7.094875e+01) (5.469121e-05 -2.453720e-04 1.151611e-02) (0.000000e+00 0.000000e+00 0.000000e+00))
7.300000e-02	((1.662482e+02 -3.241294e+02 5.036042e-02) (7.299066e-02 2.387652e-02 2.380320e-04) (0.000000e+00 0.000000e+00 0.000000e+00)) ((-4.650501e-01 -1.647773e-01 -7.121764e+01) (5.850826e-05 -2.532530e-04 1.176026e-02) (0.000000e+00 0.000000e+00 0.000000e+00))
7.400000e-02	((1.675055e+02 -3.251255e+02 5.387846e-02) (7.469113e-02 2.459642e-02 2.581244e-04) (0.000000e+00 0.000000e+00 0.000000e+00)) ((-4.627912e-01 -1.605015e-01 -7.169267e+01) (5.891215e-05 -2.598871e-04 1.200351e-02) (0.000000e+00 0.000000e+00 0.000000e+00))
7.500000e-02	((1.690754e+02 -3.271073e+02 5.496114e-02) (7.642384e-02 2.531290e-02 2.749156e-04) (0.000000e+00 0.000000e+00 0.000000e+00)) ((-4.911984e-01 -1.635990e-01 -7.233418e+01) (6.236547e-05 -2.666970e-04 1.224405e-02) (0.000000e+00 0.000000e+00 0.000000e+00))
7.600000e-02	((1.710296e+02 -3.303093e+02 5.276372e-02) (7.816524e-02 2.600519e-02 2.891954e-04) (0.000000e+00 0.000000e+00 0.000000e+00)) ((-5.312596e-01 -1.790138e-01 -7.318476e+01) (6.264150e-05 -2.704424e-04 1.247891e-02) (0.000000e+00 0.000000e+00 0.000000e+00))
7.700000e-02	((1.732084e+02 -3.341509e+02 4.775935e-02) (7.998501e-02 2.669632e-02 2.961667e-04) (0.000000e+00 0.000000e+00 0.000000e+00)) ((-5.855879e-01 -2.045475e-01 -7.415854e+01) (6.637873e-05 -2.730869e-04 1.271503e-02) (0.000000e+00 0.000000e+00 0.000000e+00))
7.800000e-02	((1.754521e+02 -3.384494e+02 4.463362e-02) (8.175301e-02 2.737016e-02 2.987846e-04) (0.000000e+00 0.000000e+00 0.000000e+00)) ((-5.778028e-01 -2.063819e-01 -7.517960e+01) (6.695770e-05 -2.742524e-04 1.294430e-02) (0.000000e+00 0.000000e+00 0.000000e+00))
7.900000e-02	((1.776174e+02 -3.427305e+02 4.272667e-02) (8.365225e-02 2.806015e-02 3.006709e-04) (0.000000e+00 0.000000e+00 0.000000e+00)) ((-5.679106e-01 -2.047539e-01 -7.617356e+01) (6.615942e-05 -2.734288e-04 1.318637e-02) (0.000000e+00 0.000000e+00 0.000000e+00))
8.000000e-02	((1.794685e+02 -3.470345e+02 3.772426e-02) (8.549511e-02 2.874139e-02 3.105139e-04) (0.000000e+00 0.000000e+00 0.000000e+00)) ((-5.621383e-01 -1.977601e-01 -7.703224e+01) (6.135593e-05 -2.791066e-04 1.342505e-02) (0.000000e+00 0.000000e+00 0.000000e+00))
8.100000e-02	((1.811120e+02 -3.513234e+02 3.251438e-02) (8.745735e-02 2.940346e-02 3.127417e-04) (0.000000e+00 0.000000e+00 0.000000e+00)) ((-5.541281e-01 -1.850398e-01 -7.779810e+01) (5.636286e-05 -2.795999e-04 1.367597e-02) (0.000000e+00 0.000000e+00 0.000000e+00))
8.200000e-02	((1.825812e+02 -3.559703e+02 2.503828e-02) (8.931842e-02 3.012681e-02 3.160985e-04) (0.000000e+00 0.000000e+00 0.000000e+00)) ((-5.479701e-01 -1.806677e-01 -7.848649e+01) (5.552709e-05 -2.828695e-04 1.393072e-02) (0.000000e+00 0.000000e+00 0.000000e+00))
8.300000e-02	((1.832862e+02 -3.595140e+02 1.651813e-02) (9.125290e-02 3.087199e-02 3.127071e-04) (0.000000e+00 0.000000e+00 0.000000e+00)) ((-5.468176e-01 -1.902567e-01 -7.884088e+01) (5.674271e-05 -2.804796e-04 1.420424e-02) (0.000000e+00 0.000000e+00 0.000000e+00))
8.400000e-02	((1.834442e+02 -3.626552e+02 9.797853e-03) (9.304017e-02 3.168421e-02 3.067717e-04) (0.000000e+00 0.000000e+00 0.000000e+00)) ((-5.180265e-01 -1.939363e-01 -7.895878e+01) (6.044422e-05 -2.759798e-04 1.448098e-02) (0.000000e+00 0.000000e+00 0.000000e+00))
8.500000e-02	((1.832752e+02 -3.651022e+02 6.385491e-03) (9.491454e-02 3.248475e-02 2.992812e-04) (0.000000e+00 0.000000e+00 0.000000e+00)) ((-5.273927e-01 -2.024910e-01 -7.893646e+01) (5.651765e-05 -2.671504e-04 1.477429e-02) (0.000000e+00 0.000000e+00 0.000000e+00))
8.600000e-02	((1.835777e+02 -3.686331e+02 6.359750e-03) (9.670013e-02 3.333534e-02 2.983489e-04) (0.000000e+00 0.000000e+00 0.000000e+00)) ((-5.602298e-01 -2.190732e-01 -7.912044e+01) (5.461057e-05 -2.653998e-04 1.507555e-02) (0.000000e+00 0.000000e+00 0.000000e+00))
8.700000e-02	((1.842837e+02 -3.725444e+02 3.893119e-03) (9.852953e-02 3.419091e-02 2.978889e-04) (0.000000e+00 0.000000e+00 0.000000e+00)) ((-5.882655e-01 -2.417222e-01 -7.947573e+01) (4.843608e-05 -2.588806e-04 1.538933e-02) (0.000000e+00 0.000000e+00 0.000000e+00))
8.800000e-02	((1.852088e+02 -3.770301e+02 6.712765e-04) (1.003212e-01 3.507969e-02 2.951549e-04) (0.000000e+00 0.000000e+00 0.000000e+00)) ((-5.961277e-01 -2.576563e-01 -7.993586e+01) (4.311628e-05 -2.557741e-04 1.571228e-02) (0.000000e+00 0.000000e+00 0.000000e+00))
8.900000e-02	((1.860539e+02 -3.812192e+02 -2.935895e-03) (1.021099e-01 3.598462e-02 2.991353e-04) (0.000000e+00 0.000000e+00 0.000000e+00)) ((-6.345166e-01 -2.853317e-01 -8.037030e+01) (3.927220e-05 -2.564609e-04 1.604080e-02) (0.000000e+00 0.000000e+00 0.000000e+00))
9.000000e-02	((1.869360e+02 -3.855116e+02 -6.188146e-03) (1.038644e-01 3.691288e-02 2.956885e-04) (0.000000e+00 0.000000e+00 0.000000e+00)) ((-6.579797e-01 -3.083229e-01 -8.084793e+01) (3.920337e-05 -2.602527e-04 1.637423e-02) (0.000000e+00 0.000000e+00 0.000000e+00))
9.100000e-02	((1.879682e+02 -3.899615e+02 -1.098655e-02) (1.055998e-01 3.778154e-02 3.006896e-04) (0.000000e+00 0.000000e+00 0.000000e+00)) ((-6.714388e-01 -3.300985e-01 -8.141183e+01) (4.356801e-05 -2.643487e-04 1.669843e-02) (0.000000e+00 0.000000e+00 0.000000e+00))
9.200000e-02	((1.894489e+02 -3.952881e+02 -1.558065e-02) (1.072635e-01 3.859347e-02 3.025409e-04) (0.000000e+00 0.000000e+00 0.000000e+00)) ((-6.461797e-01 -3.268330e-01 -8.220264e+01) (4.241274e-05 -2.686924e-04 1.700680e-02) (0.000000e+00 0.000000e+00 0.000000e+00))
9.300000e-02	((1.915982e+02 -4.017120e+02 -2.101204e-02) (1.089096e-01 3.936688e-02 2.874552e-04) (0.000000e+00 0.000000e+00 0.000000e+00)) ((-6.241095e-01 -3.220361e-01 -8.330198e+01) (4.040822e-05 -2.666842e-04 1.730445e-02) (0.000000e+00 0.000000e+00 0.000000e+00))
9.400000e-02	((1.944197e+02 -4.092817e+02 -2.546664e-02) (1.104863e-01 4.007324e-02 2.803086e-04) (0.000000e+00 0.000000e+00 0.000000e+00)) ((-6.134056e-01 -3.166321e-01 -8.470177e+01) (3.985537e-05 -2.675618e-04 1.757905e-02) (0.000000e+00 0.000000e+00 0.000000e+00))
9.500000e-02	((1.976911e+02 -4.174311e+02 -3.168652e-02) (1.120221e-01 4.072562e-02 2.707049e-04) (0.000000e+00 0.000000e+00 0.000000e+00)) ((-5.992933e-01 -3.129684e-01 -8.628311e+01) (3.985794e-05 -2.716523e-04 1.783236e-02) (0.000000e+00 0.000000e+00 0.000000e+00))
9.600000e-02	((2.011954e+02 -4.258719e+02 -3.609049e-02) (1.134963e-01 4.133947e-02 2.616370e-04) (0.000000e+00 0.000000e+00 0.000000e+00)) ((-5.740015e-01 -2.999356e-01 -8.795174e+01) (4.276488e-05 -2.764751e-04 1.806970e-02) (0.000000e+00 0.000000e+00 0.000000e+00))
9.700000e-02	((2.047200e+02 -4.341885e+02 -4.037205e-02) (1.149528e-01 4.192622e-02 2.492027e-04) (0.000000e+00 0.000000e+00 0.000000e+00)) ((-5.419926e-01 -2.873062e-01 -8.960805e+01) (5.125801e-05 -2.854565e-04 1.829794e-02) (0.000000e+00 0.000000e+00 0.000000e+00))
9.800000e-02	((2.082101e+02 -4.423618e+02 -4.343244e-02) (1.163719e-01 4.247498e-02 2.423684e-04) (0.000000e+00 0.000000e+00 0.000000e+00)) ((-5.206444e-01 -2.784277e-01 -9.122775e+01) (6.180438e-05 -2.942380e-04 1.851366e-02) (0.000000e+00 0.000000e+00 0.000000e+00))
9.900000e-02	((2.116346e+02 -4.503495e+02 -4.557062e-02) (1.177948e-01 4.301233e-02 2.434993e-04) (0.000000e+00 0.000000e+00 0.000000e+00)) ((-5.031156e-01 -2.678053e-01 -9.280560e+01) (7.384873e-05 -3.046037e-04 1.872609e-02) (0.000000e+00 0.000000e+00 0.000000e+00))
1.000000e-01	((2.149878e+02 -4.582586e+02 -4.584177e-02) (1.192148e-01 4.354270e-02 2.398756e-04) (0.000000e+00 0.000000e+00 0.000000e+00)) ((-4.761340e-01 -2.437963e-01 -9.434985e+01) (8.439729e-05 -3.117946e-04 1.893680e-02) (0.000000e+00 0.000000e+00 0.000000e+00))
1.010000e-01	((2.182175e+02 -4.659946e+02 -4.678055e-02) (1.206579e-01 4.410713e-02 2.353255e-04) (0.000000e+00 0.000000e+00 0.000000e+00)) ((-4.597957e-01 -2.234927e-01 -9.584499e+01) (8.935001e-05 -3.147405e-04 1.915898e-02) (0.000000e+00 0.000000e+00 0.000000e+00))
1.020000e-01	((2.212490e+02 -4.736008e+02 -4.885500e-02) (1.220954e-01 4.469732e-02 2.192417e-04) (0.000000e+00 0.000000e+00 0.000000e+00)) ((-4.540109e-01 -2.106936e-01 -9.727372e+01) (9.413312e-05 -3.144205e-04 1.939098e-02) (0.000000e+00 0.000000e+00 0.000000e+00))
1.030000e-01	((2.240058e+02 -4.808735e+02 -5.151100e-02) (1.235158e-01 4.528836e-02 2.002976e-04) (0.000000e+00 0.000000e+00 0.000000e+00)) ((-4.494940e-01 -2.016065e-01 -9.859763e+01) (1.003304e-04 -3.098360e-04 1.962380e-02) (0.000000e+00 0.000000e+00 0.000000e+00))
1.040000e-01	((2.264524e+02 -4.878571e+02 -5.394459e-02) (1.249233e-01 4.587308e-02 1.913270e-04) (0.000000e+00 0.000000e+00 0.000000e+00)) ((-4.521175e-01 -2.006831e-01 -9.980656e+01) (1.029022e-04 -3.086717e-04 1.985514e-02) (0.000000e+00 0.000000e+00 0.000000e+00))
1.050000e-01	((2.287355e+02 -4.946036e+02 -5.793024e-02) (1.263275e-01 4.645685e-02 1.782014e-04) (0.000000e+00 0.000000e+00 0.000000e+00)) ((-4.589514e-01 -2.096413e-01 -1.009512e+02) (1.040458e-04 -3.072209e-04 2.008758e-02) (0.000000e+00 0.000000e+00 0.000000e+00))
1.060000e-01	((2.309903e+02 -5.013398e+02 -6.166673e-02) (1.277072e-01 4.704587e-02 1.618409e-04) (0.000000e+00 0.000000e+00 0.000000e+00)) ((-4.803843e-01 -2.285295e-01 -1.020909e+02) (1.063440e-04 -3.055967e-04 2.032207e-02) (0.000000e+00 0.000000e+00 0.000000e+00))
1.070000e-01	((2.333051e+02 -5.080906e+02 -6.670004e-02) (1.290906e-01 4.763941e-02 1.467145e-04) (0.000000e+00 0.000000e+00 0.000000e+00)) ((-5.066128e-01 -2.485005e-01 -1.032558e+02) (1.119260e-04 -3.020473e-04 2.055821e-02) (0.000000e+00 0.000000e+00 0.000000e+00))
1.080000e-01	((2.356900e+02 -5.149304e+02 -6.978244e-02) (1.304697e-01 4.826033e-02 1.338012e-04) (0.000000e+00 0.000000e+00 0.000000e+00)) ((-5.285906e-01 -2.614473e-01 -1.044519e+02) (1.173709e-04 -2.979079e-04 2.080002e-02) (0.000000e+00 0.000000e+00 0.000000e+00))
1.090000e-01	((2.380877e+02 -5.217674e+02 -7.376368e-02) (1.318642e-01 4.890254e-02 1.144536e-04) (0.000000e+00 0.000000e+00 0.000000e+00)) ((-5.465129e-01 -2.667047e-01 -1.056570e+02) (1.211103e-04 -2.920910e-04 2.104835e-02) (0.000000e+00 0.000000e+00 0.000000e+00))
1.100000e-01	((2.405604e+02 -5.287251e+02 -7.547490e-02) (1.332482e-01 4.956495e-02 9.503213e-05) (0.000000e+00 0.000000e+00 0.000000e+00)) ((-5.565812e-01 -2.677432e-01 -1.069002e+02) (1.245143e-04 -2.863012e-04 2.130142e-02) (0.000000e+00 0.000000e+00 0.000000e+00))
1.110000e-01	((2.430987e+02 -5.357449e+02 -8.058615e-02) (1.346455e-01 5.023768e-02 7.525044e-05) (0.000000e+00 0.000000e+00 0.000000e+00)) ((-5.686612e-01 -2.662316e-01 -1.081771e+02) (1.259605e-04 -2.830275e-04 2.155904e-02) (0.000000e+00 0.000000e+00 0.000000e+00))