# Forces     
# CofR       : (0.000000e+00 0.000000e+00 0.000000e+00)
# Time       forces(pressure viscous porous) moment(pressure viscous porous)
1.000000e-03	((1.112141e+00 -1.772168e+00 7.294667e-05) (3.079871e-03 -4.751063e-05 1.338089e-07) (0.000000e+00 0.000000e+00 0.000000e+00)) ((-3.393918e-04 -9.127429e-05 -4.650154e-01) (-1.151618e-07 -1.028588e-06 3.976055e-05) (0.000000e+00 0.000000e+00 0.000000e+00))
2.000000e-03	((3.198477e+00 -5.121376e+00 2.060528e-04) (3.202723e-03 5.697121e-04 9.333309e-07) (0.000000e+00 0.000000e+00 0.000000e+00)) ((-1.020296e-03 -2.715529e-04 -1.280934e+00) (8.133933e-07 -1.195134e-06 2.798764e-04) (0.000000e+00 0.000000e+00 0.000000e+00))
3.000000e-03	((4.580837e+00 -7.532355e+00 3.501791e-04) (3.933074e-03 1.080305e-03 2.661311e-06) (0.000000e+00 0.000000e+00 0.000000e+00)) ((-1.563154e-03 -4.390011e-04 -1.814449e+00) (1.820433e-06 -2.257702e-06 4.877031e-04) (0.000000e+00 0.000000e+00 0.000000e+00))
4.000000e-03	((5.053520e+00 -8.748277e+00 3.971558e-04) (4.979168e-03 1.514588e-03 5.699928e-06) (0.000000e+00 0.000000e+00 0.000000e+00)) ((1.344009e-03 5.500647e-04 -1.997222e+00) (1.273531e-06 -2.368064e-06 6.796069e-04) (0.000000e+00 0.000000e+00 0.000000e+00))
5.000000e-03	((5.156052e+00 -9.501235e+00 3.774438e-04) (5.916954e-03 1.896121e-03 8.320788e-06) (0.000000e+00 0.000000e+00 0.000000e+00)) ((7.502390e-03 3.851276e-03 -2.049165e+00) (4.471152e-07 -5.300321e-06 8.486526e-04) (0.000000e+00 0.000000e+00 0.000000e+00))
6.000000e-03	((5.356087e+00 -1.048690e+01 1.955656e-04) (6.665503e-03 2.197726e-03 7.364640e-06) (0.000000e+00 0.000000e+00 0.000000e+00)) ((1.542912e-02 8.052779e-03 -2.156897e+00) (1.040565e-06 -4.054734e-06 9.967762e-04) (0.000000e+00 0.000000e+00 0.000000e+00))
7.000000e-03	((5.897138e+00 -1.210347e+01 -1.534812e-03) (7.301844e-03 2.441592e-03 1.189324e-06) (0.000000e+00 0.000000e+00 0.000000e+00)) ((2.526052e-02 1.428737e-02 -2.411907e+00) (1.242983e-06 -4.022611e-06 1.115404e-03) (0.000000e+00 0.000000e+00 0.000000e+00))
8.000000e-03	((7.068416e+00 -1.465667e+01 -2.062300e-03) (7.841309e-03 2.709250e-03 -2.974811e-06) (0.000000e+00 0.000000e+00 0.000000e+00)) ((2.794401e-02 1.683028e-02 -2.920012e+00) (2.115770e-06 -1.262106e-06 1.235706e-03) (0.000000e+00 0.000000e+00 0.000000e+00))
9.000000e-03	((8.537505e+00 -1.758622e+01 -1.108307e-03) (8.459813e-03 2.929817e-03 -5.997434e-06) (0.000000e+00 0.000000e+00 0.000000e+00)) ((2.273534e-02 1.427506e-02 -3.532088e+00) (6.815933e-07 7.328502e-07 1.337697e-03) (0.000000e+00 0.000000e+00 0.000000e+00))
1.000000e-02	((1.014416e+01 -2.070281e+01 2.055211e-03) (9.139445e-03 3.183565e-03 -8.239278e-06) (0.000000e+00 0.000000e+00 0.000000e+00)) ((1.667160e-02 7.051449e-03 -4.180235e+00) (1.346474e-06 8.916909e-07 1.451342e-03) (0.000000e+00 0.000000e+00 0.000000e+00))
1.100000e-02	((1.153585e+01 -2.363637e+01 5.117443e-03) (9.904685e-03 3.424397e-03 -6.814925e-06) (0.000000e+00 0.000000e+00 0.000000e+00)) ((2.560804e-02 2.551032e-03 -4.743713e+00) (9.491133e-08 1.467040e-06 1.560979e-03) (0.000000e+00 0.000000e+00 0.000000e+00))
1.200000e-02	((1.284754e+01 -2.666680e+01 6.247154e-03) (1.065145e-02 3.679685e-03 -7.341248e-06) (0.000000e+00 0.000000e+00 0.000000e+00)) ((4.193085e-02 1.988412e-03 -5.291266e+00) (2.110162e-06 7.747699e-08 1.684062e-03) (0.000000e+00 0.000000e+00 0.000000e+00))
1.300000e-02	((1.398288e+01 -2.959287e+01 7.009098e-03) (1.141594e-02 3.908419e-03 -7.277877e-06) (0.000000e+00 0.000000e+00 0.000000e+00)) ((5.730913e-02 3.253988e-03 -5.784925e+00) (1.108411e-06 -9.328157e-07 1.795847e-03) (0.000000e+00 0.000000e+00 0.000000e+00))
1.400000e-02	((1.514421e+01 -3.260367e+01 5.894169e-03) (1.209552e-02 4.152365e-03 -1.099988e-05) (0.000000e+00 0.000000e+00 0.000000e+00)) ((6.345523e-02 8.248180e-03 -6.294602e+00) (4.219684e-06 -2.144752e-07 1.914688e-03) (0.000000e+00 0.000000e+00 0.000000e+00))
1.500000e-02	((1.639352e+01 -3.580927e+01 6.273127e-03) (1.278183e-02 4.375315e-03 -1.524121e-05) (0.000000e+00 0.000000e+00 0.000000e+00)) ((6.445335e-02 1.202243e-02 -6.847225e+00) (3.452178e-06 -5.168950e-07 2.023622e-03) (0.000000e+00 0.000000e+00 0.000000e+00))
1.600000e-02	((1.810215e+01 -3.980903e+01 6.299388e-03) (1.344000e-02 4.623973e-03 -2.015911e-05) (0.000000e+00 0.000000e+00 0.000000e+00)) ((6.053602e-02 1.372170e-02 -7.584640e+00) (4.681845e-06 7.774272e-07 2.143647e-03) (0.000000e+00 0.000000e+00 0.000000e+00))
1.700000e-02	((2.021064e+01 -4.458013e+01 7.820943e-03) (1.418257e-02 4.847381e-03 -2.362393e-05) (0.000000e+00 0.000000e+00 0.000000e+00)) ((7.029407e-02 1.720874e-02 -8.477566e+00) (3.273015e-06 -2.200687e-06 2.253070e-03) (0.000000e+00 0.000000e+00 0.000000e+00))
1.800000e-02	((2.267832e+01 -5.008476e+01 8.222916e-03) (1.495815e-02 5.088434e-03 -2.484010e-05) (0.000000e+00 0.000000e+00 0.000000e+00)) ((8.175301e-02 1.840833e-02 -9.512026e+00) (6.042766e-06 -3.937226e-06 2.374136e-03) (0.000000e+00 0.000000e+00 0.000000e+00))
1.900000e-02	((2.513702e+01 -5.587997e+01 7.713833e-03) (1.581738e-02 5.310222e-03 -2.698926e-05) (0.000000e+00 0.000000e+00 0.000000e+00)) ((9.211370e-02 1.801746e-02 -1.055290e+01) (4.500215e-06 -6.224786e-06 2.492998e-03) (0.000000e+00 0.000000e+00 0.000000e+00))
2.000000e-02	((2.765384e+01 -6.201915e+01 6.821363e-03) (1.666377e-02 5.551628e-03 -2.780854e-05) (0.000000e+00 0.000000e+00 0.000000e+00)) ((1.038815e-01 2.088042e-02 -1.163107e+01) (6.241082e-06 -7.060254e-06 2.625157e-03) (0.000000e+00 0.000000e+00 0.000000e+00))
2.100000e-02	((2.997685e+01 -6.808554e+01 6.460717e-03) (1.754531e-02 5.775154e-03 -3.102257e-05) (0.000000e+00 0.000000e+00 0.000000e+00)) ((1.001568e-01 2.103579e-02 -1.264620e+01) (4.128416e-06 -8.543351e-06 2.752621e-03) (0.000000e+00 0.000000e+00 0.000000e+00))
2.200000e-02	((3.236095e+01 -7.439109e+01 7.164937e-03) (1.837038e-02 6.029879e-03 -3.118514e-05) (0.000000e+00 0.000000e+00 0.000000e+00)) ((8.556645e-02 1.813553e-02 -1.370397e+01) (6.953443e-06 -9.442290e-06 2.892686e-03) (0.000000e+00 0.000000e+00 0.000000e+00))
2.300000e-02	((3.481968e+01 -8.108248e+01 8.955090e-03) (1.921776e-02 6.256048e-03 -3.436685e-05) (0.000000e+00 0.000000e+00 0.000000e+00)) ((6.916036e-02 1.548909e-02 -1.481421e+01) (4.262533e-06 -1.004786e-05 3.022014e-03) (0.000000e+00 0.000000e+00 0.000000e+00))
2.400000e-02	((3.756847e+01 -8.826136e+01 1.320021e-02) (2.002555e-02 6.518285e-03 -3.303356e-05) (0.000000e+00 0.000000e+00 0.000000e+00)) ((2.834249e-02 9.002627e-03 -1.604826e+01) (4.378663e-06 -9.196019e-06 3.162581e-03) (0.000000e+00 0.000000e+00 0.000000e+00))
2.500000e-02	((4.060778e+01 -9.610663e+01 1.674748e-02) (2.088372e-02 6.759165e-03 -3.426092e-05) (0.000000e+00 0.000000e+00 0.000000e+00)) ((5.319623e-03 1.059670e-02 -1.741058e+01) (7.289875e-07 -1.209363e-05 3.294324e-03) (0.000000e+00 0.000000e+00 0.000000e+00))
2.600000e-02	((4.416714e+01 -1.049550e+02 2.180878e-02) (2.172537e-02 7.033375e-03 -2.994840e-05) (0.000000e+00 0.000000e+00 0.000000e+00)) ((-9.337493e-03 9.229310e-03 -1.899117e+01) (2.793274e-06 -1.398211e-05 3.438165e-03) (0.000000e+00 0.000000e+00 0.000000e+00))
2.700000e-02	((4.795671e+01 -1.145411e+02 2.499623e-02) (2.263497e-02 7.280866e-03 -2.606750e-05) (0.000000e+00 0.000000e+00 0.000000e+00)) ((-4.469917e-02 9.671934e-04 -2.067919e+01) (-1.147335e-06 -1.883267e-05 3.573748e-03) (0.000000e+00 0.000000e+00 0.000000e+00))
2.800000e-02	((5.208151e+01 -1.248076e+02 2.604943e-02) (2.352687e-02 7.564365e-03 -2.164831e-05) (0.000000e+00 0.000000e+00 0.000000e+00)) ((-1.004921e-01 -1.161389e-02 -2.250752e+01) (5.685691e-07 -2.116330e-05 3.723407e-03) (0.000000e+00 0.000000e+00 0.000000e+00))
2.900000e-02	((5.618544e+01 -1.352887e+02 2.594222e-02) (2.447923e-02 7.825001e-03 -1.878831e-05) (0.000000e+00 0.000000e+00 0.000000e+00)) ((-1.303453e-01 -2.185623e-02 -2.433616e+01) (-3.283773e-06 -2.628132e-05 3.865659e-03) (0.000000e+00 0.000000e+00 0.000000e+00))
3.000000e-02	((6.043256e+01 -1.461663e+02 2.658138e-02) (2.540144e-02 8.120024e-03 -1.604905e-05) (0.000000e+00 0.000000e+00 0.000000e+00)) ((-1.700997e-01 -3.203048e-02 -2.623878e+01) (4.185422e-07 -2.770659e-05 4.022164e-03) (0.000000e+00 0.000000e+00 0.000000e+00))
3.100000e-02	((6.457089e+01 -1.571645e+02 2.449058e-02) (2.637460e-02 8.381940e-03 -1.350036e-05) (0.000000e+00 0.000000e+00 0.000000e+00)) ((-2.009243e-01 -3.934559e-02 -2.811829e+01) (-4.245208e-06 -3.134688e-05 4.168434e-03) (0.000000e+00 0.000000e+00 0.000000e+00))
3.200000e-02	((6.882221e+01 -1.683189e+02 2.359195e-02) (2.729955e-02 8.683853e-03 -1.258875e-05) (0.000000e+00 0.000000e+00 0.000000e+00)) ((-2.311672e-01 -4.813905e-02 -3.005310e+01) (-3.677779e-07 -3.031143e-05 4.328112e-03) (0.000000e+00 0.000000e+00 0.000000e+00))
3.300000e-02	((7.301695e+01 -1.795737e+02 2.323089e-02) (2.826819e-02 8.948664e-03 -1.055488e-05) (0.000000e+00 0.000000e+00 0.000000e+00)) ((-2.388320e-01 -5.091457e-02 -3.198631e+01) (-3.866570e-06 -3.212838e-05 4.474909e-03) (0.000000e+00 0.000000e+00 0.000000e+00))
3.400000e-02	((7.738153e+01 -1.909627e+02 2.307333e-02) (2.918173e-02 9.253434e-03 -9.572830e-06) (0.000000e+00 0.000000e+00 0.000000e+00)) ((-2.563862e-01 -5.404357e-02 -3.399739e+01) (-1.787334e-06 -3.164181e-05 4.634343e-03) (0.000000e+00 0.000000e+00 0.000000e+00))
3.500000e-02	((8.183362e+01 -2.026707e+02 2.386138e-02) (3.015010e-02 9.515794e-03 -7.372548e-06) (0.000000e+00 0.000000e+00 0.000000e+00)) ((-2.496801e-01 -5.152745e-02 -3.606204e+01) (-4.468417e-06 -3.470215e-05 4.779146e-03) (0.000000e+00 0.000000e+00 0.000000e+00))
3.600000e-02	((8.659594e+01 -2.149060e+02 2.560548e-02) (3.105338e-02 9.827799e-03 -7.983333e-06) (0.000000e+00 0.000000e+00 0.000000e+00)) ((-2.488058e-01 -4.448421e-02 -3.826033e+01) (-4.820580e-06 -3.537851e-05 4.938371e-03) (0.000000e+00 0.000000e+00 0.000000e+00))
3.700000e-02	((9.132144e+01 -2.272590e+02 2.521064e-02) (3.201020e-02 1.007791e-02 -4.224606e-06) (0.000000e+00 0.000000e+00 0.000000e+00)) ((-2.352018e-01 -4.158962e-02 -4.045464e+01) (-5.132451e-06 -3.845322e-05 5.079245e-03) (0.000000e+00 0.000000e+00 0.000000e+00))
3.800000e-02	((9.623952e+01 -2.397821e+02 2.456677e-02) (3.289354e-02 1.038644e-02 -2.943584e-06) (0.000000e+00 0.000000e+00 0.000000e+00)) ((-2.451834e-01 -4.501617e-02 -4.272378e+01) (-6.142907e-06 -4.161257e-05 5.235111e-03) (0.000000e+00 0.000000e+00 0.000000e+00))
3.900000e-02	((1.010418e+02 -2.523575e+02 2.312646e-02) (3.383162e-02 1.062655e-02 5.324351e-07) (0.000000e+00 0.000000e+00 0.000000e+00)) ((-2.163846e-01 -4.567811e-02 -4.496135e+01) (-4.440985e-06 -4.300865e-05 5.371908e-03) (0.000000e+00 0.000000e+00 0.000000e+00))
4.000000e-02	((1.059045e+02 -2.648298e+02 2.365403e-02) (3.469727e-02 1.093311e-02 1.672865e-06) (0.000000e+00 0.000000e+00 0.000000e+00)) ((-1.942835e-01 -4.442371e-02 -4.721783e+01) (-6.186407e-06 -4.694912e-05 5.525621e-03) (0.000000e+00 0.000000e+00 0.000000e+00))
4.100000e-02	((1.106897e+02 -2.773300e+02 2.596868e-02) (3.561792e-02 1.116161e-02 4.519242e-06) (0.000000e+00 0.000000e+00 0.000000e+00)) ((-1.690308e-01 -4.282891e-02 -4.945332e+01) (-1.873441e-06 -4.892996e-05 5.659628e-03) (0.000000e+00 0.000000e+00 0.000000e+00))
4.200000e-02	((1.156998e+02 -2.901711e+02 2.805676e-02) (3.647432e-02 1.146285e-02 1.636220e-06) (0.000000e+00 0.000000e+00 0.000000e+00)) ((-1.838759e-01 -4.246611e-02 -5.178627e+01) (-4.653721e-06 -5.224685e-05 5.808611e-03) (0.000000e+00 0.000000e+00 0.000000e+00))
4.300000e-02	((1.206307e+02 -3.030908e+02 2.949590e-02) (3.735814e-02 1.168882e-02 9.076653e-07) (0.000000e+00 0.000000e+00 0.000000e+00)) ((-1.852236e-01 -3.981686e-02 -5.410253e+01) (1.341397e-06 -5.268501e-05 5.939408e-03) (0.000000e+00 0.000000e+00 0.000000e+00))
4.400000e-02	((1.256567e+02 -3.160580e+02 3.152320e-02) (3.818357e-02 1.197654e-02 -3.222582e-06) (0.000000e+00 0.000000e+00 0.000000e+00)) ((-2.028379e-01 -4.129736e-02 -5.645603e+01) (-3.375256e-06 -5.560942e-05 6.081995e-03) (0.000000e+00 0.000000e+00 0.000000e+00))
4.500000e-02	((1.306617e+02 -3.291730e+02 3.386476e-02) (3.902956e-02 1.219637e-02 -3.502639e-06) (0.000000e+00 0.000000e+00 0.000000e+00)) ((-1.841573e-01 -3.538821e-02 -5.881376e+01) (2.627278e-06 -5.538034e-05 6.208668e-03) (0.000000e+00 0.000000e+00 0.000000e+00))
4.600000e-02	((1.357784e+02 -3.424799e+02 3.578363e-02) (3.982139e-02 1.247376e-02 -5.423429e-06) (0.000000e+00 0.000000e+00 0.000000e+00)) ((-1.969533e-01 -4.229839e-02 -6.122615e+01) (7.589694e-07 -5.881672e-05 6.345568e-03) (0.000000e+00 0.000000e+00 0.000000e+00))
4.700000e-02	((1.408678e+02 -3.559663e+02 4.062391e-02) (4.061553e-02 1.268405e-02 -3.262394e-06) (0.000000e+00 0.000000e+00 0.000000e+00)) ((-1.696498e-01 -4.662075e-02 -6.364573e+01) (7.393212e-06 -5.858382e-05 6.467843e-03) (0.000000e+00 0.000000e+00 0.000000e+00))
4.800000e-02	((1.458672e+02 -3.691601e+02 4.238871e-02) (4.136789e-02 1.294724e-02 -4.649242e-06) (0.000000e+00 0.000000e+00 0.000000e+00)) ((-1.783809e-01 -5.496579e-02 -6.602685e+01) (4.596038e-06 -6.150031e-05 6.597629e-03) (0.000000e+00 0.000000e+00 0.000000e+00))
4.900000e-02	((1.507087e+02 -3.822020e+02 4.544056e-02) (4.212263e-02 1.313945e-02 -2.758081e-06) (0.000000e+00 0.000000e+00 0.000000e+00)) ((-1.888615e-01 -6.693310e-02 -6.835514e+01) (8.337532e-06 -6.088914e-05 6.713994e-03) (0.000000e+00 0.000000e+00 0.000000e+00))
5.000000e-02	((1.555370e+02 -3.950652e+02 4.796573e-02) (4.284800e-02 1.338507e-02 -3.429450e-06) (0.000000e+00 0.000000e+00 0.000000e+00)) ((-2.307223e-01 -8.110402e-02 -7.067293e+01) (4.727854e-06 -6.495051e-05 6.837260e-03) (0.000000e+00 0.000000e+00 0.000000e+00))
5.100000e-02	((1.603167e+02 -4.078642e+02 4.973945e-02) (4.357899e-02 1.355133e-02 -1.941328e-06) (0.000000e+00 0.000000e+00 0.000000e+00)) ((-2.518084e-01 -9.340318e-02 -7.297747e+01) (9.414738e-06 -6.374804e-05 6.945164e-03) (0.000000e+00 0.000000e+00 0.000000e+00))
5.200000e-02	((1.651084e+02 -4.206022e+02 4.958665e-02) (4.427516e-02 1.377724e-02 -4.261920e-06) (0.000000e+00 0.000000e+00 0.000000e+00)) ((-3.095178e-01 -1.129186e-01 -7.529147e+01) (5.452564e-06 -6.770399e-05 7.060494e-03) (0.000000e+00 0.000000e+00 0.000000e+00))
5.300000e-02	((1.698433e+02 -4.332893e+02 5.198300e-02) (4.496774e-02 1.392229e-02 -3.011567e-06) (0.000000e+00 0.000000e+00 0.000000e+00)) ((-3.238445e-01 -1.249145e-01 -7.758348e+01) (6.981063e-06 -6.861758e-05 7.160622e-03) (0.000000e+00 0.000000e+00 0.000000e+00))
5.400000e-02	((1.746256e+02 -4.459552e+02 5.427991e-02) (4.560654e-02 1.411305e-02 -8.842897e-06) (0.000000e+00 0.000000e+00 0.000000e+00)) ((-3.489021e-01 -1.343121e-01 -7.989288e+01) (6.051461e-06 -7.077999e-05 7.263963e-03) (0.000000e+00 0.000000e+00 0.000000e+00))
5.500000e-02	((1.794032e+02 -4.586530e+02 5.862113e-02) (4.626635e-02 1.424037e-02 -1.122230e-05) (0.000000e+00 0.000000e+00 0.000000e+00)) ((-3.385987e-01 -1.349008e-01 -8.220072e+01) (7.533187e-06 -7.069022e-05 7.356025e-03) (0.000000e+00 0.000000e+00 0.000000e+00))
5.600000e-02	((1.842617e+02 -4.713756e+02 6.053622e-02) (4.690775e-02 1.443725e-02 -1.640023e-05) (0.000000e+00 0.000000e+00 0.000000e+00)) ((-3.620269e-01 -1.416528e-01 -8.453852e+01) (7.384057e-06 -7.291715e-05 7.460400e-03) (0.000000e+00 0.000000e+00 0.000000e+00))
5.700000e-02	((1.891588e+02 -4.841938e+02 6.279481e-02) (4.757078e-02 1.455050e-02 -1.730624e-05) (0.000000e+00 0.000000e+00 0.000000e+00)) ((-3.636173e-01 -1.425248e-01 -8.688794e+01) (1.243992e-05 -7.185002e-05 7.546997e-03) (0.000000e+00 0.000000e+00 0.000000e+00))
5.800000e-02	((1.939624e+02 -4.966804e+02 6.330689e-02) (4.823234e-02 1.474845e-02 -2.119677e-05) (0.000000e+00 0.000000e+00 0.000000e+00)) ((-3.768127e-01 -1.422131e-01 -8.918732e+01) (1.288721e-05 -7.410672e-05 7.647803e-03) (0.000000e+00 0.000000e+00 0.000000e+00))
5.900000e-02	((1.987097e+02 -5.091307e+02 6.567218e-02) (4.892930e-02 1.488957e-02 -2.106370e-05) (0.000000e+00 0.000000e+00 0.000000e+00)) ((-3.174894e-01 -1.264513e-01 -9.146358e+01) (1.545834e-05 -7.529586e-05 7.740259e-03) (0.000000e+00 0.000000e+00 0.000000e+00))
6.000000e-02	((2.034091e+02 -5.213585e+02 6.976788e-02) (4.961704e-02 1.510749e-02 -2.449775e-05) (0.000000e+00 0.000000e+00 0.000000e+00)) ((-2.882282e-01 -1.153996e-01 -9.371373e+01) (1.563072e-05 -7.851196e-05 7.843973e-03) (0.000000e+00 0.000000e+00 0.000000e+00))
6.100000e-02	((2.081195e+02 -5.336624e+02 6.949772e-02) (5.033151e-02 1.526325e-02 -2.415459e-05) (0.000000e+00 0.000000e+00 0.000000e+00)) ((-2.480464e-01 -1.048833e-01 -9.596917e+01) (1.872634e-05 -7.953025e-05 7.939732e-03) (0.000000e+00 0.000000e+00 0.000000e+00))
6.200000e-02	((2.127114e+02 -5.455553e+02 7.002707e-02) (5.103251e-02 1.551331e-02 -2.854144e-05) (0.000000e+00 0.000000e+00 0.000000e+00)) ((-2.767983e-01 -1.093023e-01 -9.816496e+01) (1.825595e-05 -8.261574e-05 8.051563e-03) (0.000000e+00 0.000000e+00 0.000000e+00))
6.300000e-02	((2.172663e+02 -5.574741e+02 6.984719e-02) (5.175399e-02 1.570146e-02 -3.146237e-05) (0.000000e+00 0.000000e+00 0.000000e+00)) ((-3.135689e-01 -1.219481e-01 -1.003495e+02) (2.100383e-05 -8.139571e-05 8.155667e-03) (0.000000e+00 0.000000e+00 0.000000e+00))
6.400000e-02	((2.217252e+02 -5.690467e+02 6.944602e-02) (5.246198e-02 1.597160e-02 -3.733487e-05) (0.000000e+00 0.000000e+00 0.000000e+00)) ((-3.758153e-01 -1.367572e-01 -1.024860e+02) (1.957658e-05 -8.283837e-05 8.272416e-03) (0.000000e+00 0.000000e+00 0.000000e+00))
6.500000e-02	((2.262156e+02 -5.807149e+02 6.835364e-02) (5.319061e-02 1.617701e-02 -3.979633e-05) (0.000000e+00 0.000000e+00 0.000000e+00)) ((-3.822618e-01 -1.393732e-01 -1.046326e+02) (2.181569e-05 -8.001749e-05 8.381888e-03) (0.000000e+00 0.000000e+00 0.000000e+00))
6.600000e-02	((2.306040e+02 -5.919959e+02 6.943014e-02) (5.391048e-02 1.648055e-02 -4.617517e-05) (0.000000e+00 0.000000e+00 0.000000e+00)) ((-3.940665e-01 -1.285207e-01 -1.067266e+02) (2.119267e-05 -8.060170e-05 8.507958e-03) (0.000000e+00 0.000000e+00 0.000000e+00))
6.700000e-02	((2.350005e+02 -6.033139e+02 6.739896e-02) (5.465311e-02 1.673443e-02 -4.814723e-05) (0.000000e+00 0.000000e+00 0.000000e+00)) ((-3.840911e-01 -1.244774e-01 -1.088194e+02) (2.242003e-05 -8.044087e-05 8.630852e-03) (0.000000e+00 0.000000e+00 0.000000e+00))
6.800000e-02	((2.393700e+02 -6.144611e+02 6.915135e-02) (5.539059e-02 1.706780e-02 -5.067311e-05) (0.000000e+00 0.000000e+00 0.000000e+00)) ((-3.796374e-01 -1.114540e-01 -1.109010e+02) (2.253804e-05 -8.073349e-05 8.766028e-03) (0.000000e+00 0.000000e+00 0.000000e+00))
6.900000e-02	((2.437466e+02 -6.257518e+02 7.122769e-02) (5.614618e-02 1.734998e-02 -4.697877e-05) (0.000000e+00 0.000000e+00 0.000000e+00)) ((-3.276741e-01 -9.411081e-02 -1.129904e+02) (2.586999e-05 -7.921993e-05 8.895589e-03) (0.000000e+00 0.000000e+00 0.000000e+00))
7.000000e-02	((2.481106e+02 -6.369370e+02 7.178766e-02) (5.688076e-02 1.769783e-02 -4.856420e-05) (0.000000e+00 0.000000e+00 0.000000e+00)) ((-2.994882e-01 -7.874643e-02 -1.150735e+02) (2.606671e-05 -8.115264e-05 9.033823e-03) (0.000000e+00 0.000000e+00 0.000000e+00))
7.100000e-02	((2.524529e+02 -6.481120e+02 7.148528e-02) (5.763026e-02 1.799764e-02 -4.656582e-05) (0.000000e+00 0.000000e+00 0.000000e+00)) ((-2.503075e-01 -7.009841e-02 -1.171455e+02) (3.084575e-05 -8.067717e-05 9.167141e-03) (0.000000e+00 0.000000e+00 0.000000e+00))
7.200000e-02	((2.567358e+02 -6.590068e+02 6.923727e-02) (5.835569e-02 1.835516e-02 -4.766476e-05) (0.000000e+00 0.000000e+00 0.000000e+00)) ((-2.416617e-01 -6.675795e-02 -1.191862e+02) (3.069867e-05 -8.214719e-05 9.307125e-03) (0.000000e+00 0.000000e+00 0.000000e+00))
7.300000e-02	((2.609233e+02 -6.698166e+02 6.622054e-02) (5.909347e-02 1.866770e-02 -4.749494e-05) (0.000000e+00 0.000000e+00 0.000000e+00)) ((-2.221241e-01 -6.589698e-02 -1.211935e+02) (3.490121e-05 -8.163740e-05 9.442696e-03) (0.000000e+00 0.000000e+00 0.000000e+00))
7.400000e-02	((2.650619e+02 -6.804739e+02 6.399320e-02) (5.980472e-02 1.902641e-02 -5.264045e-05) (0.000000e+00 0.000000e+00 0.000000e+00)) ((-2.322731e-01 -6.396490e-02 -1.231783e+02) (3.442032e-05 -8.301268e-05 9.582213e-03) (0.000000e+00 0.000000e+00 0.000000e+00))
7.500000e-02	((2.692606e+02 -6.913093e+02 6.292933e-02) (6.052067e-02 1.934035e-02 -5.742057e-05) (0.000000e+00 0.000000e+00 0.000000e+00)) ((-2.283706e-01 -6.594440e-02 -1.251946e+02) (3.764523e-05 -8.074199e-05 9.717143e-03) (0.000000e+00 0.000000e+00 0.000000e+00))
7.600000e-02	((2.734384e+02 -7.020261e+02 6.205211e-02) (6.121294e-02 1.969143e-02 -6.391633e-05) (0.000000e+00 0.000000e+00 0.000000e+00)) ((-2.458163e-01 -7.119104e-02 -1.272060e+02) (3.616373e-05 -7.903945e-05 9.854111e-03) (0.000000e+00 0.000000e+00 0.000000e+00))
7.700000e-02	((2.776052e+02 -7.128071e+02 6.207152e-02) (6.191310e-02 2.000720e-02 -6.814197e-05) (0.000000e+00 0.000000e+00 0.000000e+00)) ((-2.329531e-01 -7.275798e-02 -1.292197e+02) (3.773351e-05 -7.678454e-05 9.988271e-03) (0.000000e+00 0.000000e+00 0.000000e+00))
7.800000e-02	((2.817071e+02 -7.235067e+02 6.216550e-02) (6.259200e-02 2.035249e-02 -7.576538e-05) (0.000000e+00 0.000000e+00 0.000000e+00)) ((-2.292461e-01 -7.105146e-02 -1.312102e+02) (3.784138e-05 -7.437528e-05 1.012286e-02) (0.000000e+00 0.000000e+00 0.000000e+00))
7.900000e-02	((2.858058e+02 -7.342050e+02 6.429320e-02) (6.327365e-02 2.066221e-02 -8.419496e-05) (0.000000e+00 0.000000e+00 0.000000e+00)) ((-2.108722e-01 -6.566743e-02 -1.332002e+02) (3.858877e-05 -7.132102e-05 1.025369e-02) (0.000000e+00 0.000000e+00 0.000000e+00))
8.000000e-02	((2.898756e+02 -7.447506e+02 6.514922e-02) (6.393800e-02 2.099669e-02 -8.886141e-05) (0.000000e+00 0.000000e+00 0.000000e+00)) ((-1.936513e-01 -5.665681e-02 -1.351799e+02) (3.817947e-05 -6.834315e-05 1.038375e-02) (0.000000e+00 0.000000e+00 0.000000e+00))
8.100000e-02	((2.938650e+02 -7.552122e+02 6.719449e-02) (6.461002e-02 2.129908e-02 -9.278654e-05) (0.000000e+00 0.000000e+00 0.000000e+00)) ((-1.741402e-01 -4.874188e-02 -1.371314e+02) (3.832271e-05 -6.544604e-05 1.051034e-02) (0.000000e+00 0.000000e+00 0.000000e+00))
8.200000e-02	((2.977827e+02 -7.654903e+02 6.684234e-02) (6.526211e-02 2.162742e-02 -9.711831e-05) (0.000000e+00 0.000000e+00 0.000000e+00)) ((-1.709864e-01 -4.106762e-02 -1.390516e+02) (3.672559e-05 -6.253464e-05 1.063733e-02) (0.000000e+00 0.000000e+00 0.000000e+00))
8.300000e-02	((3.017046e+02 -7.757482e+02 6.827012e-02) (6.591676e-02 2.192955e-02 -1.003655e-04) (0.000000e+00 0.000000e+00 0.000000e+00)) ((-1.686477e-01 -4.364484e-02 -1.409707e+02) (3.628064e-05 -5.923295e-05 1.076206e-02) (0.000000e+00 0.000000e+00 0.000000e+00))
8.400000e-02	((3.055563e+02 -7.858007e+02 6.860368e-02) (6.655090e-02 2.225535e-02 -1.038155e-04) (0.000000e+00 0.000000e+00 0.000000e+00)) ((-1.693038e-01 -4.275319e-02 -1.428650e+02) (3.456233e-05 -5.629036e-05 1.088731e-02) (0.000000e+00 0.000000e+00 0.000000e+00))
8.500000e-02	((3.093581e+02 -7.957093e+02 6.947796e-02) (6.718252e-02 2.255279e-02 -1.089334e-04) (0.000000e+00 0.000000e+00 0.000000e+00)) ((-1.736089e-01 -5.021606e-02 -1.447358e+02) (3.467775e-05 -5.195958e-05 1.100969e-02) (0.000000e+00 0.000000e+00 0.000000e+00))
8.600000e-02	((3.131061e+02 -8.054323e+02 6.861604e-02) (6.779467e-02 2.286737e-02 -1.173224e-04) (0.000000e+00 0.000000e+00 0.000000e+00)) ((-1.692434e-01 -4.563071e-02 -1.465803e+02) (3.168016e-05 -4.755486e-05 1.113073e-02) (0.000000e+00 0.000000e+00 0.000000e+00))
8.700000e-02	((3.168341e+02 -8.151242e+02 7.149479e-02) (6.840235e-02 2.315801e-02 -1.274494e-04) (0.000000e+00 0.000000e+00 0.000000e+00)) ((-1.787452e-01 -5.644447e-02 -1.484150e+02) (3.031153e-05 -4.133172e-05 1.124962e-02) (0.000000e+00 0.000000e+00 0.000000e+00))
8.800000e-02	((3.204545e+02 -8.246561e+02 7.118412e-02) (6.899391e-02 2.346441e-02 -1.373622e-04) (0.000000e+00 0.000000e+00 0.000000e+00)) ((-1.838251e-01 -5.467344e-02 -1.502138e+02) (2.654514e-05 -3.680223e-05 1.136765e-02) (0.000000e+00 0.000000e+00 0.000000e+00))
8.900000e-02	((3.239834e+02 -8.340622e+02 7.233870e-02) (6.957297e-02 2.374482e-02 -1.464094e-04) (0.000000e+00 0.000000e+00 0.000000e+00)) ((-1.898268e-01 -5.650896e-02 -1.519780e+02) (2.491347e-05 -3.210975e-05 1.148267e-02) (0.000000e+00 0.000000e+00 0.000000e+00))
9.000000e-02	((3.273940e+02 -8.432150e+02 7.174036e-02) (7.012948e-02 2.404137e-02 -1.490059e-04) (0.000000e+00 0.000000e+00 0.000000e+00)) ((-1.884612e-01 -5.061969e-02 -1.536909e+02) (2.058918e-05 -3.036749e-05 1.159699e-02) (0.000000e+00 0.000000e+00 0.000000e+00))
9.100000e-02	((3.307868e+02 -8.522861e+02 7.374027e-02) (7.068139e-02 2.432085e-02 -1.496149e-04) (0.000000e+00 0.000000e+00 0.000000e+00)) ((-1.869344e-01 -5.150255e-02 -1.553889e+02) (1.895885e-05 -2.823104e-05 1.171035e-02) (0.000000e+00 0.000000e+00 0.000000e+00))
9.200000e-02	((3.341011e+02 -8.611051e+02 7.234680e-02) (7.122039e-02 2.462293e-02 -1.461041e-04) (0.000000e+00 0.000000e+00 0.000000e+00)) ((-1.972181e-01 -5.000491e-02 -1.570528e+02) (1.601434e-05 -2.842745e-05 1.182565e-02) (0.000000e+00 0.000000e+00 0.000000e+00))
9.300000e-02	((3.374273e+02 -8.698580e+02 7.278311e-02) (7.176486e-02 2.491194e-02 -1.403536e-04) (0.000000e+00 0.000000e+00 0.000000e+00)) ((-2.097902e-01 -5.628730e-02 -1.587145e+02) (1.502564e-05 -2.860561e-05 1.194115e-02) (0.000000e+00 0.000000e+00 0.000000e+00))
9.400000e-02	((3.407064e+02 -8.784540e+02 7.146914e-02) (7.228981e-02 2.521076e-02 -1.352676e-04) (0.000000e+00 0.000000e+00 0.000000e+00)) ((-2.137195e-01 -5.444429e-02 -1.603544e+02) (1.255920e-05 -2.840044e-05 1.205478e-02) (0.000000e+00 0.000000e+00 0.000000e+00))
9.500000e-02	((3.439051e+02 -8.868859e+02 7.439363e-02) (7.281022e-02 2.549020e-02 -1.283310e-04) (0.000000e+00 0.000000e+00 0.000000e+00)) ((-2.119823e-01 -5.927627e-02 -1.619539e+02) (1.205780e-05 -2.871479e-05 1.216630e-02) (0.000000e+00 0.000000e+00 0.000000e+00))
9.600000e-02	((3.470408e+02 -8.951950e+02 7.456541e-02) (7.331509e-02 2.577669e-02 -1.174117e-04) (0.000000e+00 0.000000e+00 0.000000e+00)) ((-2.155885e-01 -6.127193e-02 -1.635315e+02) (1.104585e-05 -2.981181e-05 1.227578e-02) (0.000000e+00 0.000000e+00 0.000000e+00))
9.700000e-02	((3.501463e+02 -9.034578e+02 7.649165e-02) (7.381744e-02 2.604807e-02 -1.095172e-04) (0.000000e+00 0.000000e+00 0.000000e+00)) ((-2.252208e-01 -7.109522e-02 -1.650928e+02) (1.096077e-05 -3.128997e-05 1.238376e-02) (0.000000e+00 0.000000e+00 0.000000e+00))
9.800000e-02	((3.532418e+02 -9.116471e+02 7.654489e-02) (7.431731e-02 2.633351e-02 -1.056345e-04) (0.000000e+00 0.000000e+00 0.000000e+00)) ((-2.334989e-01 -7.136454e-02 -1.666507e+02) (9.428686e-06 -3.012018e-05 1.249189e-02) (0.000000e+00 0.000000e+00 0.000000e+00))
9.900000e-02	((3.562029e+02 -9.196601e+02 8.159658e-02) (7.482446e-02 2.661552e-02 -9.981376e-05) (0.000000e+00 0.000000e+00 0.000000e+00)) ((-2.337060e-01 -7.265027e-02 -1.681507e+02) (9.496192e-06 -3.130143e-05 1.260245e-02) (0.000000e+00 0.000000e+00 0.000000e+00))
1.000000e-01	((3.590872e+02 -9.275371e+02 8.229335e-02) (7.533083e-02 2.691876e-02 -9.790141e-05) (0.000000e+00 0.000000e+00 0.000000e+00)) ((-2.299965e-01 -6.602705e-02 -1.696226e+02) (8.892283e-06 -3.078603e-05 1.271569e-02) (0.000000e+00 0.000000e+00 0.000000e+00))
1.010000e-01	((3.619344e+02 -9.352661e+02 8.575960e-02) (7.582487e-02 2.719916e-02 -9.242275e-05) (0.000000e+00 0.000000e+00 0.000000e+00)) ((-2.418316e-01 -6.846341e-02 -1.710713e+02) (8.232720e-06 -3.346085e-05 1.282439e-02) (0.000000e+00 0.000000e+00 0.000000e+00))
1.020000e-01	((3.647174e+02 -9.428403e+02 8.632813e-02) (7.629544e-02 2.748297e-02 -8.895673e-05) (0.000000e+00 0.000000e+00 0.000000e+00)) ((-2.335052e-01 -5.642357e-02 -1.724972e+02) (8.183143e-06 -3.442432e-05 1.293108e-02) (0.000000e+00 0.000000e+00 0.000000e+00))
1.030000e-01	((3.674801e+02 -9.503008e+02 9.209876e-02) (7.674075e-02 2.774953e-02 -8.417715e-05) (0.000000e+00 0.000000e+00 0.000000e+00)) ((-2.301569e-01 -5.659966e-02 -1.739046e+02) (7.420504e-06 -3.622592e-05 1.303601e-02) (0.000000e+00 0.000000e+00 0.000000e+00))
1.040000e-01	((3.701676e+02 -9.576322e+02 9.246159e-02) (7.716716e-02 2.801782e-02 -8.535269e-05) (0.000000e+00 0.000000e+00 0.000000e+00)) ((-2.238006e-01 -5.098624e-02 -1.752807e+02) (7.186770e-06 -3.526844e-05 1.313694e-02) (0.000000e+00 0.000000e+00 0.000000e+00))
1.050000e-01	((3.728142e+02 -9.647732e+02 9.612862e-02) (7.757323e-02 2.825473e-02 -8.075475e-05) (0.000000e+00 0.000000e+00 0.000000e+00)) ((-2.381146e-01 -5.807299e-02 -1.766272e+02) (6.062933e-06 -3.711090e-05 1.323078e-02) (0.000000e+00 0.000000e+00 0.000000e+00))
1.060000e-01	((3.753738e+02 -9.717864e+02 9.545256e-02) (7.796687e-02 2.849175e-02 -8.261713e-05) (0.000000e+00 0.000000e+00 0.000000e+00)) ((-2.339624e-01 -5.358817e-02 -1.779456e+02) (6.576257e-06 -3.543482e-05 1.332053e-02) (0.000000e+00 0.000000e+00 0.000000e+00))
1.070000e-01	((3.778976e+02 -9.786145e+02 1.002693e-01) (7.834810e-02 2.870325e-02 -8.135973e-05) (0.000000e+00 0.000000e+00 0.000000e+00)) ((-2.351663e-01 -5.519888e-02 -1.792335e+02) (5.810391e-06 -3.650931e-05 1.340483e-02) (0.000000e+00 0.000000e+00 0.000000e+00))
1.080000e-01	((3.803633e+02 -9.853790e+02 9.920314e-02) (7.871764e-02 2.892078e-02 -8.990409e-05) (0.000000e+00 0.000000e+00 0.000000e+00)) ((-2.356427e-01 -5.596054e-02 -1.805036e+02) (6.596826e-06 -3.148397e-05 1.348685e-02) (0.000000e+00 0.000000e+00 0.000000e+00))
1.090000e-01	((3.827934e+02 -9.919273e+02 1.034818e-01) (7.908164e-02 2.911127e-02 -9.297860e-05) (0.000000e+00 0.000000e+00 0.000000e+00)) ((-2.411386e-01 -5.683656e-02 -1.817424e+02) (5.468935e-06 -3.091756e-05 1.356279e-02) (0.000000e+00 0.000000e+00 0.000000e+00))
1.100000e-01	((3.851437e+02 -9.984080e+02 1.018538e-01) (7.943339e-02 2.931785e-02 -1.019548e-04) (0.000000e+00 0.000000e+00 0.000000e+00)) ((-2.386586e-01 -5.589899e-02 -1.829594e+02) (5.630977e-06 -2.649570e-05 1.364069e-02) (0.000000e+00 0.000000e+00 0.000000e+00))
1.110000e-01	((3.874774e+02 -1.004711e+03 1.067269e-01) (7.977159e-02 2.949697e-02 -1.027650e-04) (0.000000e+00 0.000000e+00 0.000000e+00)) ((-2.438737e-01 -5.829304e-02 -1.841525e+02) (2.914676e-06 -2.750180e-05 1.371308e-02) (0.000000e+00 0.000000e+00 0.000000e+00))