# Forces     
# CofR       : (0.000000e+00 0.000000e+00 0.000000e+00)
# Time       forces(pressure viscous porous) moment(pressure viscous porous)
1.000000e-03	((1.380881e+00 -2.135279e+00 -7.926936e-05) (9.885318e-03 -3.538780e-05 1.649476e-07) (0.000000e+00 0.000000e+00 0.000000e+00)) ((1.844199e-04 1.585993e-04 -5.708429e-01) (2.791170e-07 -2.965255e-06 2.421368e-04) (0.000000e+00 0.000000e+00 0.000000e+00))
2.000000e-03	((5.688979e+00 -9.097823e+00 -3.064623e-04) (9.930293e-03 1.866257e-03 4.577997e-06) (0.000000e+00 0.000000e+00 0.000000e+00)) ((3.633451e-04 3.618444e-04 -2.276088e+00) (3.633754e-06 1.648557e-05 9.561315e-04) (0.000000e+00 0.000000e+00 0.000000e+00))
3.000000e-03	((8.151179e+00 -1.372118e+01 -4.581854e-04) (1.117191e-02 3.588020e-03 2.400245e-06) (0.000000e+00 0.000000e+00 0.000000e+00)) ((1.861151e-04 3.335621e-04 -3.265098e+00) (7.577748e-06 -1.395813e-06 1.622279e-03) (0.000000e+00 0.000000e+00 0.000000e+00))
4.000000e-03	((7.913013e+00 -1.396264e+01 -5.228413e-04) (1.347778e-02 5.231407e-03 2.490717e-06) (0.000000e+00 0.000000e+00 0.000000e+00)) ((3.622924e-04 1.279266e-03 -3.165001e+00) (7.218887e-06 -4.648957e-06 2.283599e-03) (0.000000e+00 0.000000e+00 0.000000e+00))
5.000000e-03	((6.483492e+00 -1.230998e+01 -5.292771e-04) (1.549846e-02 6.415067e-03 2.802712e-06) (0.000000e+00 0.000000e+00 0.000000e+00)) ((-8.581194e-04 2.169812e-04 -2.604634e+00) (6.236765e-06 -3.014389e-06 2.792948e-03) (0.000000e+00 0.000000e+00 0.000000e+00))
6.000000e-03	((5.060437e+00 -1.079018e+01 -4.396030e-04) (1.669907e-02 7.065873e-03 6.740359e-07) (0.000000e+00 0.000000e+00 0.000000e+00)) ((-3.905994e-03 -1.505736e-03 -2.081154e+00) (1.049070e-05 -5.087463e-06 3.096860e-03) (0.000000e+00 0.000000e+00 0.000000e+00))
7.000000e-03	((4.108621e+00 -1.000598e+01 -3.436484e-04) (1.740881e-02 7.396351e-03 2.075445e-06) (0.000000e+00 0.000000e+00 0.000000e+00)) ((-5.463289e-03 -2.736269e-03 -1.772064e+00) (6.395413e-06 -8.413916e-06 3.242300e-03) (0.000000e+00 0.000000e+00 0.000000e+00))
8.000000e-03	((4.137275e+00 -1.069717e+01 -5.436075e-04) (1.788441e-02 7.592160e-03 -8.333357e-07) (0.000000e+00 0.000000e+00 0.000000e+00)) ((-5.198917e-03 -2.924598e-03 -1.855052e+00) (1.642952e-06 -1.058989e-05 3.330617e-03) (0.000000e+00 0.000000e+00 0.000000e+00))
9.000000e-03	((4.923095e+00 -1.248589e+01 -6.816898e-04) (1.822456e-02 7.682186e-03 -5.188206e-06) (0.000000e+00 0.000000e+00 0.000000e+00)) ((-4.011869e-03 -2.202705e-03 -2.230941e+00) (2.882449e-06 -9.495915e-06 3.380587e-03) (0.000000e+00 0.000000e+00 0.000000e+00))
1.000000e-02	((6.065947e+00 -1.476980e+01 -5.813501e-04) (1.864601e-02 7.738821e-03 -6.912952e-06) (0.000000e+00 0.000000e+00 0.000000e+00)) ((-4.315210e-03 -1.701208e-03 -2.735810e+00) (4.479368e-06 -7.868933e-06 3.430386e-03) (0.000000e+00 0.000000e+00 0.000000e+00))
1.100000e-02	((7.224993e+00 -1.703629e+01 -4.875762e-04) (1.912973e-02 7.805618e-03 -1.026923e-05) (0.000000e+00 0.000000e+00 0.000000e+00)) ((-4.196386e-03 -9.752193e-04 -3.233731e+00) (5.828003e-06 -7.286367e-06 3.494462e-03) (0.000000e+00 0.000000e+00 0.000000e+00))
1.200000e-02	((8.287875e+00 -1.913305e+01 -2.388213e-04) (1.972727e-02 7.915804e-03 -1.169367e-05) (0.000000e+00 0.000000e+00 0.000000e+00)) ((-5.811299e-03 -1.204425e-03 -3.681482e+00) (7.865654e-06 -8.329117e-06 3.579290e-03) (0.000000e+00 0.000000e+00 0.000000e+00))
1.300000e-02	((9.069953e+00 -2.078003e+01 -1.375190e-04) (2.038657e-02 8.035410e-03 -1.498541e-05) (0.000000e+00 0.000000e+00 0.000000e+00)) ((-6.281606e-03 -1.230424e-03 -4.010801e+00) (9.117276e-06 -9.059825e-06 3.673857e-03) (0.000000e+00 0.000000e+00 0.000000e+00))
1.400000e-02	((9.603082e+00 -2.203933e+01 -2.065641e-04) (2.108558e-02 8.166432e-03 -1.702407e-05) (0.000000e+00 0.000000e+00 0.000000e+00)) ((-6.382672e-03 -1.748602e-03 -4.239947e+00) (9.460876e-06 -9.081140e-06 3.774085e-03) (0.000000e+00 0.000000e+00 0.000000e+00))
1.500000e-02	((1.007094e+01 -2.324382e+01 1.734754e-04) (2.180538e-02 8.305558e-03 -2.013205e-05) (0.000000e+00 0.000000e+00 0.000000e+00)) ((-1.537133e-03 -9.337529e-04 -4.446822e+00) (8.897103e-06 -8.828410e-06 3.877061e-03) (0.000000e+00 0.000000e+00 0.000000e+00))
1.600000e-02	((1.065472e+01 -2.475187e+01 6.427557e-04) (2.252074e-02 8.460110e-03 -2.301082e-05) (0.000000e+00 0.000000e+00 0.000000e+00)) ((3.005843e-04 -6.850647e-04 -4.711184e+00) (7.922092e-06 -8.750016e-06 3.982802e-03) (0.000000e+00 0.000000e+00 0.000000e+00))
1.700000e-02	((1.136972e+01 -2.664912e+01 3.487125e-04) (2.320067e-02 8.616255e-03 -2.704750e-05) (0.000000e+00 0.000000e+00 0.000000e+00)) ((-4.284108e-05 -9.749423e-04 -5.044632e+00) (8.200913e-06 -8.769468e-06 4.085890e-03) (0.000000e+00 0.000000e+00 0.000000e+00))
1.800000e-02	((1.231405e+01 -2.910396e+01 1.291567e-06) (2.384378e-02 8.769284e-03 -3.110849e-05) (0.000000e+00 0.000000e+00 0.000000e+00)) ((-3.000552e-03 -2.386511e-03 -5.485814e+00) (8.380367e-06 -7.949785e-06 4.186233e-03) (0.000000e+00 0.000000e+00 0.000000e+00))
1.900000e-02	((1.339104e+01 -3.192443e+01 -8.871310e-05) (2.445224e-02 8.899806e-03 -3.338750e-05) (0.000000e+00 0.000000e+00 0.000000e+00)) ((-7.716616e-03 -4.517911e-03 -5.993146e+00) (9.193522e-06 -7.712628e-06 4.278371e-03) (0.000000e+00 0.000000e+00 0.000000e+00))
2.000000e-02	((1.449754e+01 -3.487041e+01 -4.856343e-05) (2.503579e-02 9.003412e-03 -3.406795e-05) (0.000000e+00 0.000000e+00 0.000000e+00)) ((-1.193951e-02 -6.768606e-03 -6.518788e+00) (9.651293e-06 -7.288747e-06 4.362774e-03) (0.000000e+00 0.000000e+00 0.000000e+00))
2.100000e-02	((1.550712e+01 -3.767534e+01 -3.583453e-04) (2.558242e-02 9.078163e-03 -3.506379e-05) (0.000000e+00 0.000000e+00 0.000000e+00)) ((-1.288615e-02 -7.434749e-03 -7.008060e+00) (1.067710e-05 -7.384936e-06 4.439225e-03) (0.000000e+00 0.000000e+00 0.000000e+00))
2.200000e-02	((1.639585e+01 -4.023678e+01 -4.945670e-04) (2.611662e-02 9.155195e-03 -3.467570e-05) (0.000000e+00 0.000000e+00 0.000000e+00)) ((-9.721295e-03 -6.944210e-03 -7.446963e+00) (1.135070e-05 -7.739287e-06 4.519037e-03) (0.000000e+00 0.000000e+00 0.000000e+00))
2.300000e-02	((1.717790e+01 -4.255376e+01 -7.880400e-04) (2.666364e-02 9.265349e-03 -3.374461e-05) (0.000000e+00 0.000000e+00 0.000000e+00)) ((-4.953802e-03 -5.923163e-03 -7.839598e+00) (1.288757e-05 -8.746785e-06 4.609074e-03) (0.000000e+00 0.000000e+00 0.000000e+00))
2.400000e-02	((1.793766e+01 -4.477340e+01 -4.537916e-04) (2.724157e-02 9.413020e-03 -3.091778e-05) (0.000000e+00 0.000000e+00 0.000000e+00)) ((-1.736080e-03 -5.956097e-03 -8.220977e+00) (1.468840e-05 -1.010745e-05 4.708883e-03) (0.000000e+00 0.000000e+00 0.000000e+00))
2.500000e-02	((1.879115e+01 -4.711958e+01 -1.994336e-04) (2.782217e-02 9.570584e-03 -2.900772e-05) (0.000000e+00 0.000000e+00 0.000000e+00)) ((7.966243e-04 -6.467924e-03 -8.639242e+00) (1.551817e-05 -1.067130e-05 4.812361e-03) (0.000000e+00 0.000000e+00 0.000000e+00))
2.600000e-02	((1.983176e+01 -4.982289e+01 5.161117e-04) (2.841027e-02 9.728819e-03 -2.740627e-05) (0.000000e+00 0.000000e+00 0.000000e+00)) ((1.204707e-03 -8.183230e-03 -9.136247e+00) (1.537680e-05 -1.188457e-05 4.916862e-03) (0.000000e+00 0.000000e+00 0.000000e+00))
2.700000e-02	((2.106046e+01 -5.293454e+01 1.088515e-03) (2.900244e-02 9.876617e-03 -2.793775e-05) (0.000000e+00 0.000000e+00 0.000000e+00)) ((-2.054052e-03 -1.121300e-02 -9.713950e+00) (1.498414e-05 -1.281250e-05 5.018981e-03) (0.000000e+00 0.000000e+00 0.000000e+00))
2.800000e-02	((2.243447e+01 -5.640607e+01 1.019480e-03) (2.959523e-02 1.001438e-02 -3.024523e-05) (0.000000e+00 0.000000e+00 0.000000e+00)) ((-6.561511e-03 -1.398141e-02 -1.035655e+01) (1.405667e-05 -1.264794e-05 5.118670e-03) (0.000000e+00 0.000000e+00 0.000000e+00))
2.900000e-02	((2.387437e+01 -6.011035e+01 4.847533e-04) (3.018901e-02 1.013971e-02 -3.390053e-05) (0.000000e+00 0.000000e+00 0.000000e+00)) ((-1.200919e-02 -1.590798e-02 -1.103202e+01) (1.386817e-05 -1.260610e-05 5.215369e-03) (0.000000e+00 0.000000e+00 0.000000e+00))
3.000000e-02	((2.530066e+01 -6.388253e+01 -2.671624e-04) (3.077201e-02 1.026489e-02 -3.614828e-05) (0.000000e+00 0.000000e+00 0.000000e+00)) ((-1.631389e-02 -1.586436e-02 -1.170613e+01) (1.317447e-05 -1.218532e-05 5.312708e-03) (0.000000e+00 0.000000e+00 0.000000e+00))
3.100000e-02	((2.668358e+01 -6.766488e+01 -7.819706e-04) (3.133784e-02 1.038521e-02 -3.795487e-05) (0.000000e+00 0.000000e+00 0.000000e+00)) ((-1.766482e-02 -1.497417e-02 -1.236773e+01) (1.269216e-05 -1.218882e-05 5.409246e-03) (0.000000e+00 0.000000e+00 0.000000e+00))
3.200000e-02	((2.801599e+01 -7.140413e+01 -1.360654e-03) (3.187474e-02 1.050161e-02 -3.864397e-05) (0.000000e+00 0.000000e+00 0.000000e+00)) ((-1.202215e-02 -1.115008e-02 -1.301286e+01) (1.209814e-05 -1.226838e-05 5.503895e-03) (0.000000e+00 0.000000e+00 0.000000e+00))
3.300000e-02	((2.933630e+01 -7.513593e+01 -1.010704e-03) (3.238347e-02 1.061306e-02 -3.709630e-05) (0.000000e+00 0.000000e+00 0.000000e+00)) ((-4.575285e-03 -7.056312e-03 -1.365625e+01) (1.201173e-05 -1.410731e-05 5.596636e-03) (0.000000e+00 0.000000e+00 0.000000e+00))
3.400000e-02	((3.066726e+01 -7.885981e+01 -6.226902e-04) (3.284371e-02 1.071695e-02 -3.283828e-05) (0.000000e+00 0.000000e+00 0.000000e+00)) ((-2.581313e-03 -5.555457e-03 -1.430441e+01) (1.190400e-05 -1.617256e-05 5.685331e-03) (0.000000e+00 0.000000e+00 0.000000e+00))
3.500000e-02	((3.208538e+01 -8.274233e+01 -3.665164e-04) (3.327416e-02 1.081535e-02 -3.495702e-05) (0.000000e+00 0.000000e+00 0.000000e+00)) ((-1.164769e-02 -8.244090e-03 -1.499168e+01) (1.166051e-05 -1.723919e-05 5.771092e-03) (0.000000e+00 0.000000e+00 0.000000e+00))
3.600000e-02	((3.362200e+01 -8.683219e+01 -6.003594e-04) (3.368378e-02 1.091142e-02 -3.928863e-05) (0.000000e+00 0.000000e+00 0.000000e+00)) ((-2.350777e-02 -1.145061e-02 -1.572981e+01) (1.083542e-05 -1.718823e-05 5.854846e-03) (0.000000e+00 0.000000e+00 0.000000e+00))
3.700000e-02	((3.527630e+01 -9.115471e+01 -1.166169e-03) (3.400981e-02 1.098251e-02 -4.390762e-05) (0.000000e+00 0.000000e+00 0.000000e+00)) ((-2.952315e-02 -1.211049e-02 -1.651903e+01) (9.661151e-06 -1.688029e-05 5.927861e-03) (0.000000e+00 0.000000e+00 0.000000e+00))
3.800000e-02	((3.702562e+01 -9.567602e+01 -2.091779e-03) (3.416278e-02 1.099459e-02 -4.723090e-05) (0.000000e+00 0.000000e+00 0.000000e+00)) ((-2.653962e-02 -9.469759e-03 -1.734960e+01) (8.766688e-06 -1.698290e-05 5.976965e-03) (0.000000e+00 0.000000e+00 0.000000e+00))
3.900000e-02	((3.885917e+01 -1.003878e+02 -2.557714e-03) (3.400264e-02 1.094580e-02 -4.557372e-05) (0.000000e+00 0.000000e+00 0.000000e+00)) ((-1.644318e-02 -4.508459e-03 -1.821691e+01) (8.221896e-06 -2.068548e-05 5.990938e-03) (0.000000e+00 0.000000e+00 0.000000e+00))
4.000000e-02	((4.075599e+01 -1.052283e+02 -2.778235e-03) (3.385218e-02 1.095925e-02 -4.737298e-05) (0.000000e+00 0.000000e+00 0.000000e+00)) ((-7.223271e-03 5.034460e-04 -1.910979e+01) (7.149763e-06 -2.270126e-05 6.014921e-03) (0.000000e+00 0.000000e+00 0.000000e+00))
4.100000e-02	((4.266191e+01 -1.101063e+02 -2.115573e-03) (3.377968e-02 1.096609e-02 -4.380613e-05) (0.000000e+00 0.000000e+00 0.000000e+00)) ((-9.713645e-03 2.391451e-04 -2.000604e+01) (5.239153e-06 -2.540178e-05 6.042617e-03) (0.000000e+00 0.000000e+00 0.000000e+00))
4.200000e-02	((4.462020e+01 -1.151397e+02 -1.474179e-03) (3.386936e-02 1.098484e-02 -4.606325e-05) (0.000000e+00 0.000000e+00 0.000000e+00)) ((-1.298941e-02 1.434125e-04 -2.092635e+01) (4.174549e-06 -2.101676e-05 6.088157e-03) (0.000000e+00 0.000000e+00 0.000000e+00))
4.300000e-02	((4.661829e+01 -1.202924e+02 -4.156183e-04) (3.406381e-02 1.099297e-02 -3.934400e-05) (0.000000e+00 0.000000e+00 0.000000e+00)) ((-1.655214e-02 -3.700457e-04 -2.186547e+01) (4.037143e-06 -2.621291e-05 6.142250e-03) (0.000000e+00 0.000000e+00 0.000000e+00))
4.400000e-02	((4.866568e+01 -1.255750e+02 -1.387623e-04) (3.429505e-02 1.100785e-02 -3.491159e-05) (0.000000e+00 0.000000e+00 0.000000e+00)) ((-1.682616e-02 -1.024322e-03 -2.282804e+01) (3.443709e-06 -2.698881e-05 6.202171e-03) (0.000000e+00 0.000000e+00 0.000000e+00))
4.500000e-02	((5.076780e+01 -1.309646e+02 -7.274311e-04) (3.458092e-02 1.105615e-02 -3.401553e-05) (0.000000e+00 0.000000e+00 0.000000e+00)) ((-1.856658e-02 -1.807111e-03 -2.381429e+01) (3.610110e-06 -2.406958e-05 6.271889e-03) (0.000000e+00 0.000000e+00 0.000000e+00))
4.600000e-02	((5.298828e+01 -1.365678e+02 -1.614094e-03) (3.489540e-02 1.113884e-02 -3.590562e-05) (0.000000e+00 0.000000e+00 0.000000e+00)) ((-1.318129e-02 -6.979052e-05 -2.485267e+01) (2.990148e-06 -1.814593e-05 6.348421e-03) (0.000000e+00 0.000000e+00 0.000000e+00))
4.700000e-02	((5.530439e+01 -1.423454e+02 -2.069668e-03) (3.525565e-02 1.124493e-02 -3.413856e-05) (0.000000e+00 0.000000e+00 0.000000e+00)) ((-7.055988e-03 2.090730e-03 -2.593225e+01) (3.320761e-06 -1.584603e-05 6.432462e-03) (0.000000e+00 0.000000e+00 0.000000e+00))
4.800000e-02	((5.776669e+01 -1.483848e+02 -2.764511e-03) (3.565165e-02 1.137117e-02 -3.426804e-05) (0.000000e+00 0.000000e+00 0.000000e+00)) ((2.199559e-03 6.608294e-03 -2.707412e+01) (2.904207e-06 -1.420671e-05 6.522512e-03) (0.000000e+00 0.000000e+00 0.000000e+00))
4.900000e-02	((6.032381e+01 -1.545677e+02 -3.226071e-03) (3.609204e-02 1.151638e-02 -3.795934e-05) (0.000000e+00 0.000000e+00 0.000000e+00)) ((1.377764e-02 1.285460e-02 -2.825429e+01) (2.624595e-06 -1.446479e-05 6.619371e-03) (0.000000e+00 0.000000e+00 0.000000e+00))
5.000000e-02	((6.294166e+01 -1.608381e+02 -3.800962e-03) (3.656786e-02 1.167225e-02 -4.689994e-05) (0.000000e+00 0.000000e+00 0.000000e+00)) ((2.050924e-02 1.642135e-02 -2.945750e+01) (2.574762e-06 -1.539948e-05 6.721204e-03) (0.000000e+00 0.000000e+00 0.000000e+00))
5.100000e-02	((6.562644e+01 -1.672432e+02 -3.503273e-03) (3.706506e-02 1.184547e-02 -5.747475e-05) (0.000000e+00 0.000000e+00 0.000000e+00)) ((2.492237e-02 1.984182e-02 -3.068893e+01) (2.310106e-06 -1.580297e-05 6.827738e-03) (0.000000e+00 0.000000e+00 0.000000e+00))
5.200000e-02	((6.835113e+01 -1.737117e+02 -2.867734e-03) (3.758800e-02 1.202689e-02 -6.556095e-05) (0.000000e+00 0.000000e+00 0.000000e+00)) ((3.471690e-02 2.297831e-02 -3.193485e+01) (2.338360e-06 -1.391981e-05 6.937792e-03) (0.000000e+00 0.000000e+00 0.000000e+00))
5.300000e-02	((7.112859e+01 -1.802887e+02 -1.904719e-03) (3.813557e-02 1.222290e-02 -7.247667e-05) (0.000000e+00 0.000000e+00 0.000000e+00)) ((4.609071e-02 2.778783e-02 -3.320277e+01) (2.856197e-06 -1.389576e-05 7.052793e-03) (0.000000e+00 0.000000e+00 0.000000e+00))
5.400000e-02	((7.397679e+01 -1.869654e+02 -1.207285e-03) (3.870485e-02 1.243021e-02 -7.712280e-05) (0.000000e+00 0.000000e+00 0.000000e+00)) ((6.705194e-02 3.569648e-02 -3.449847e+01) (3.034753e-06 -1.595515e-05 7.171129e-03) (0.000000e+00 0.000000e+00 0.000000e+00))
5.500000e-02	((7.688958e+01 -1.937168e+02 -7.501617e-05) (3.931552e-02 1.265036e-02 -8.316925e-05) (0.000000e+00 0.000000e+00 0.000000e+00)) ((8.958476e-02 4.437976e-02 -3.581707e+01) (2.941310e-06 -1.532995e-05 7.295046e-03) (0.000000e+00 0.000000e+00 0.000000e+00))
5.600000e-02	((7.985223e+01 -2.004880e+02 6.379607e-04) (3.996285e-02 1.288190e-02 -8.808264e-05) (0.000000e+00 0.000000e+00 0.000000e+00)) ((1.008592e-01 5.018605e-02 -3.715235e+01) (3.062614e-06 -1.401767e-05 7.423778e-03) (0.000000e+00 0.000000e+00 0.000000e+00))
5.700000e-02	((8.288665e+01 -2.073476e+02 2.605601e-03) (4.064447e-02 1.312724e-02 -9.394792e-05) (0.000000e+00 0.000000e+00 0.000000e+00)) ((1.098610e-01 5.295657e-02 -3.851567e+01) (4.092278e-06 -1.277610e-05 7.556750e-03) (0.000000e+00 0.000000e+00 0.000000e+00))
5.800000e-02	((8.597487e+01 -2.142647e+02 4.186358e-03) (4.135307e-02 1.338930e-02 -9.614728e-05) (0.000000e+00 0.000000e+00 0.000000e+00)) ((1.216520e-01 5.600517e-02 -3.990032e+01) (5.568243e-06 -1.209795e-05 7.694365e-03) (0.000000e+00 0.000000e+00 0.000000e+00))
5.900000e-02	((8.914964e+01 -2.213006e+02 5.780454e-03) (4.209547e-02 1.366844e-02 -9.943541e-05) (0.000000e+00 0.000000e+00 0.000000e+00)) ((1.312403e-01 5.899895e-02 -4.132066e+01) (6.591570e-06 -1.062115e-05 7.836431e-03) (0.000000e+00 0.000000e+00 0.000000e+00))
6.000000e-02	((9.235593e+01 -2.282782e+02 6.392864e-03) (4.286289e-02 1.396467e-02 -1.036365e-04) (0.000000e+00 0.000000e+00 0.000000e+00)) ((1.434775e-01 6.065179e-02 -4.274996e+01) (7.863230e-06 -9.191467e-06 7.982957e-03) (0.000000e+00 0.000000e+00 0.000000e+00))
6.100000e-02	((9.558787e+01 -2.351610e+02 7.008753e-03) (4.365360e-02 1.427412e-02 -1.097255e-04) (0.000000e+00 0.000000e+00 0.000000e+00)) ((1.659530e-01 6.626516e-02 -4.418249e+01) (9.358968e-06 -6.916924e-06 8.132824e-03) (0.000000e+00 0.000000e+00 0.000000e+00))
6.200000e-02	((9.887741e+01 -2.419783e+02 7.218863e-03) (4.447208e-02 1.459049e-02 -1.181651e-04) (0.000000e+00 0.000000e+00 0.000000e+00)) ((1.975083e-01 7.407212e-02 -4.563290e+01) (1.117123e-05 -5.897392e-06 8.286333e-03) (0.000000e+00 0.000000e+00 0.000000e+00))
6.300000e-02	((1.021681e+02 -2.486134e+02 7.911814e-03) (4.532741e-02 1.492305e-02 -1.286874e-04) (0.000000e+00 0.000000e+00 0.000000e+00)) ((2.269648e-01 8.091785e-02 -4.707427e+01) (1.219523e-05 -4.801890e-06 8.445140e-03) (0.000000e+00 0.000000e+00 0.000000e+00))
6.400000e-02	((1.054626e+02 -2.550883e+02 7.368432e-03) (4.622316e-02 1.526980e-02 -1.383432e-04) (0.000000e+00 0.000000e+00 0.000000e+00)) ((2.555251e-01 8.667192e-02 -4.851029e+01) (1.311068e-05 -4.083076e-06 8.608894e-03) (0.000000e+00 0.000000e+00 0.000000e+00))
6.500000e-02	((1.087890e+02 -2.615696e+02 8.073773e-03) (4.716474e-02 1.563835e-02 -1.483273e-04) (0.000000e+00 0.000000e+00 0.000000e+00)) ((2.921061e-01 9.505004e-02 -4.995892e+01) (1.393646e-05 -3.207315e-06 8.779516e-03) (0.000000e+00 0.000000e+00 0.000000e+00))
6.600000e-02	((1.121525e+02 -2.681191e+02 8.376784e-03) (4.815396e-02 1.602247e-02 -1.584521e-04) (0.000000e+00 0.000000e+00 0.000000e+00)) ((3.316970e-01 1.035620e-01 -5.142289e+01) (1.558165e-05 -2.740096e-06 8.956405e-03) (0.000000e+00 0.000000e+00 0.000000e+00))
6.700000e-02	((1.154873e+02 -2.746120e+02 9.438062e-03) (4.919143e-02 1.643686e-02 -1.619749e-04) (0.000000e+00 0.000000e+00 0.000000e+00)) ((3.755902e-01 1.125979e-01 -5.286995e+01) (1.620042e-05 -1.977490e-06 9.141728e-03) (0.000000e+00 0.000000e+00 0.000000e+00))
6.800000e-02	((1.187867e+02 -2.810599e+02 9.820077e-03) (5.028455e-02 1.688028e-02 -1.637385e-04) (0.000000e+00 0.000000e+00 0.000000e+00)) ((4.243909e-01 1.221209e-01 -5.429764e+01) (1.784613e-05 -1.388822e-06 9.337547e-03) (0.000000e+00 0.000000e+00 0.000000e+00))
6.900000e-02	((1.219994e+02 -2.873194e+02 1.087362e-02) (5.143910e-02 1.736994e-02 -1.679682e-04) (0.000000e+00 0.000000e+00 0.000000e+00)) ((4.681387e-01 1.316226e-01 -5.567888e+01) (1.798588e-05 1.068631e-06 9.546148e-03) (0.000000e+00 0.000000e+00 0.000000e+00))
7.000000e-02	((1.251412e+02 -2.934212e+02 1.086282e-02) (5.263859e-02 1.788437e-02 -1.701941e-04) (0.000000e+00 0.000000e+00 0.000000e+00)) ((5.033832e-01 1.380137e-01 -5.702311e+01) (1.902388e-05 2.305226e-06 9.764526e-03) (0.000000e+00 0.000000e+00 0.000000e+00))
7.100000e-02	((1.281893e+02 -2.992845e+02 1.120526e-02) (5.389218e-02 1.844614e-02 -1.750844e-04) (0.000000e+00 0.000000e+00 0.000000e+00)) ((5.324104e-01 1.456820e-01 -5.831879e+01) (1.741916e-05 6.214448e-06 9.996045e-03) (0.000000e+00 0.000000e+00 0.000000e+00))
7.200000e-02	((1.311617e+02 -3.049104e+02 1.108288e-02) (5.518159e-02 1.903854e-02 -1.824243e-04) (0.000000e+00 0.000000e+00 0.000000e+00)) ((5.622814e-01 1.557835e-01 -5.957613e+01) (1.756118e-05 1.048536e-05 1.023852e-02) (0.000000e+00 0.000000e+00 0.000000e+00))
7.300000e-02	((1.340862e+02 -3.104329e+02 1.145980e-02) (5.650343e-02 1.966891e-02 -1.918825e-04) (0.000000e+00 0.000000e+00 0.000000e+00)) ((5.846021e-01 1.647345e-01 -6.081302e+01) (1.577837e-05 1.669846e-05 1.049203e-02) (0.000000e+00 0.000000e+00 0.000000e+00))
7.400000e-02	((1.370082e+02 -3.159953e+02 1.098916e-02) (5.786792e-02 2.032998e-02 -2.047392e-04) (0.000000e+00 0.000000e+00 0.000000e+00)) ((5.971092e-01 1.726740e-01 -6.205543e+01) (1.520010e-05 2.303674e-05 1.075556e-02) (0.000000e+00 0.000000e+00 0.000000e+00))
7.500000e-02	((1.398971e+02 -3.216128e+02 1.099503e-02) (5.927094e-02 2.103379e-02 -2.214629e-04) (0.000000e+00 0.000000e+00 0.000000e+00)) ((6.050479e-01 1.808889e-01 -6.329370e+01) (1.259742e-05 3.195184e-05 1.103082e-02) (0.000000e+00 0.000000e+00 0.000000e+00))
7.600000e-02	((1.427918e+02 -3.274140e+02 1.030763e-02) (6.068859e-02 2.176418e-02 -2.353543e-04) (0.000000e+00 0.000000e+00 0.000000e+00)) ((6.059540e-01 1.882306e-01 -6.455147e+01) (1.138826e-05 3.812562e-05 1.131424e-02) (0.000000e+00 0.000000e+00 0.000000e+00))
7.700000e-02	((1.457100e+02 -3.334899e+02 9.790615e-03) (6.211818e-02 2.252439e-02 -2.531297e-04) (0.000000e+00 0.000000e+00 0.000000e+00)) ((6.006514e-01 1.972719e-01 -6.584009e+01) (7.894119e-06 4.542108e-05 1.160505e-02) (0.000000e+00 0.000000e+00 0.000000e+00))
7.800000e-02	((1.486024e+02 -3.397303e+02 8.388129e-03) (6.350623e-02 2.328446e-02 -2.645952e-04) (0.000000e+00 0.000000e+00 0.000000e+00)) ((6.024489e-01 2.118494e-01 -6.713727e+01) (5.517396e-06 5.009940e-05 1.189473e-02) (0.000000e+00 0.000000e+00 0.000000e+00))
7.900000e-02	((1.514729e+02 -3.461151e+02 7.354997e-03) (6.481474e-02 2.402100e-02 -2.927351e-04) (0.000000e+00 0.000000e+00 0.000000e+00)) ((5.978044e-01 2.262725e-01 -6.844286e+01) (1.442396e-06 5.996152e-05 1.217484e-02) (0.000000e+00 0.000000e+00 0.000000e+00))
8.000000e-02	((1.542410e+02 -3.524170e+02 6.424253e-03) (6.602545e-02 2.471782e-02 -3.063089e-04) (0.000000e+00 0.000000e+00 0.000000e+00)) ((5.899857e-01 2.411014e-01 -6.971710e+01) (-2.704770e-06 6.671335e-05 1.244054e-02) (0.000000e+00 0.000000e+00 0.000000e+00))
8.100000e-02	((1.568607e+02 -3.584879e+02 6.973000e-03) (6.711988e-02 2.536423e-02 -3.222956e-04) (0.000000e+00 0.000000e+00 0.000000e+00)) ((5.831160e-01 2.597733e-01 -7.093457e+01) (-7.442018e-06 7.399515e-05 1.268634e-02) (0.000000e+00 0.000000e+00 0.000000e+00))
8.200000e-02	((1.593728e+02 -3.643383e+02 6.973589e-03) (6.812444e-02 2.596767e-02 -3.296336e-04) (0.000000e+00 0.000000e+00 0.000000e+00)) ((5.826274e-01 2.820147e-01 -7.211071e+01) (-1.152421e-05 7.858783e-05 1.291585e-02) (0.000000e+00 0.000000e+00 0.000000e+00))
8.300000e-02	((1.618719e+02 -3.701200e+02 7.119691e-03) (6.904076e-02 2.653339e-02 -3.390080e-04) (0.000000e+00 0.000000e+00 0.000000e+00)) ((5.748580e-01 3.033699e-01 -7.328696e+01) (-1.567026e-05 8.315293e-05 1.313035e-02) (0.000000e+00 0.000000e+00 0.000000e+00))
8.400000e-02	((1.644143e+02 -3.759269e+02 6.390155e-03) (6.988167e-02 2.705692e-02 -3.458085e-04) (0.000000e+00 0.000000e+00 0.000000e+00)) ((5.526673e-01 3.193135e-01 -7.449007e+01) (-1.932181e-05 8.735694e-05 1.333071e-02) (0.000000e+00 0.000000e+00 0.000000e+00))
8.500000e-02	((1.670324e+02 -3.818054e+02 6.967252e-03) (7.065515e-02 2.754156e-02 -3.621573e-04) (0.000000e+00 0.000000e+00 0.000000e+00)) ((5.278810e-01 3.337476e-01 -7.573355e+01) (-2.446161e-05 9.511113e-05 1.351796e-02) (0.000000e+00 0.000000e+00 0.000000e+00))
8.600000e-02	((1.697847e+02 -3.879609e+02 7.374144e-03) (7.138011e-02 2.798509e-02 -3.758214e-04) (0.000000e+00 0.000000e+00 0.000000e+00)) ((4.943999e-01 3.433586e-01 -7.705205e+01) (-2.829543e-05 1.023401e-04 1.369315e-02) (0.000000e+00 0.000000e+00 0.000000e+00))
8.700000e-02	((1.726692e+02 -3.943847e+02 8.863108e-03) (7.205562e-02 2.838753e-02 -3.966133e-04) (0.000000e+00 0.000000e+00 0.000000e+00)) ((4.594937e-01 3.528087e-01 -7.844408e+01) (-3.148993e-05 1.117328e-04 1.385502e-02) (0.000000e+00 0.000000e+00 0.000000e+00))
8.800000e-02	((1.756131e+02 -4.008527e+02 9.732648e-03) (7.270694e-02 2.875014e-02 -4.088938e-04) (0.000000e+00 0.000000e+00 0.000000e+00)) ((4.288626e-01 3.617543e-01 -7.987209e+01) (-3.465192e-05 1.180296e-04 1.400532e-02) (0.000000e+00 0.000000e+00 0.000000e+00))
8.900000e-02	((1.785391e+02 -4.071931e+02 1.084595e-02) (7.333096e-02 2.907862e-02 -4.292201e-04) (0.000000e+00 0.000000e+00 0.000000e+00)) ((3.970591e-01 3.689912e-01 -8.129555e+01) (-3.716835e-05 1.267123e-04 1.414402e-02) (0.000000e+00 0.000000e+00 0.000000e+00))
9.000000e-02	((1.814280e+02 -4.134302e+02 1.129170e-02) (7.394554e-02 2.937555e-02 -4.388109e-04) (0.000000e+00 0.000000e+00 0.000000e+00)) ((3.707712e-01 3.750820e-01 -8.270363e+01) (-3.966474e-05 1.317777e-04 1.427280e-02) (0.000000e+00 0.000000e+00 0.000000e+00))
9.100000e-02	((1.842359e+02 -4.194279e+02 1.194262e-02) (7.454482e-02 2.964122e-02 -4.589518e-04) (0.000000e+00 0.000000e+00 0.000000e+00)) ((3.467204e-01 3.814686e-01 -8.406783e+01) (-4.247763e-05 1.414854e-04 1.439126e-02) (0.000000e+00 0.000000e+00 0.000000e+00))
9.200000e-02	((1.868918e+02 -4.250131e+02 1.220370e-02) (7.517132e-02 2.990359e-02 -4.727105e-04) (0.000000e+00 0.000000e+00 0.000000e+00)) ((3.337859e-01 3.883632e-01 -8.534952e+01) (-4.345273e-05 1.490108e-04 1.450817e-02) (0.000000e+00 0.000000e+00 0.000000e+00))
9.300000e-02	((1.894449e+02 -4.303265e+02 1.290850e-02) (7.580444e-02 3.019064e-02 -4.926040e-04) (0.000000e+00 0.000000e+00 0.000000e+00)) ((3.232297e-01 3.929309e-01 -8.657099e+01) (-4.629881e-05 1.605123e-04 1.462849e-02) (0.000000e+00 0.000000e+00 0.000000e+00))
9.400000e-02	((1.918924e+02 -4.353955e+02 1.377889e-02) (7.640347e-02 3.048246e-02 -5.089429e-04) (0.000000e+00 0.000000e+00 0.000000e+00)) ((3.194675e-01 3.969780e-01 -8.773263e+01) (-4.936016e-05 1.727109e-04 1.474618e-02) (0.000000e+00 0.000000e+00 0.000000e+00))
9.500000e-02	((1.942423e+02 -4.401846e+02 1.500463e-02) (7.691371e-02 3.072782e-02 -5.238495e-04) (0.000000e+00 0.000000e+00 0.000000e+00)) ((3.064523e-01 3.938281e-01 -8.883419e+01) (-5.329162e-05 1.859906e-04 1.484679e-02) (0.000000e+00 0.000000e+00 0.000000e+00))
9.600000e-02	((1.964274e+02 -4.445908e+02 1.512672e-02) (7.735638e-02 3.092883e-02 -5.328211e-04) (0.000000e+00 0.000000e+00 0.000000e+00)) ((2.936906e-01 3.866724e-01 -8.984748e+01) (-5.768127e-05 1.974005e-04 1.493348e-02) (0.000000e+00 0.000000e+00 0.000000e+00))
9.700000e-02	((1.983915e+02 -4.485334e+02 1.466533e-02) (7.776712e-02 3.108843e-02 -5.491124e-04) (0.000000e+00 0.000000e+00 0.000000e+00)) ((2.778870e-01 3.755624e-01 -9.075087e+01) (-6.291810e-05 2.114340e-04 1.500928e-02) (0.000000e+00 0.000000e+00 0.000000e+00))
9.800000e-02	((2.001403e+02 -4.521402e+02 1.330321e-02) (7.821451e-02 3.124233e-02 -5.581408e-04) (0.000000e+00 0.000000e+00 0.000000e+00)) ((2.688473e-01 3.641599e-01 -9.155872e+01) (-6.739003e-05 2.235374e-04 1.508618e-02) (0.000000e+00 0.000000e+00 0.000000e+00))
9.900000e-02	((2.016578e+02 -4.553967e+02 1.132585e-02) (7.863374e-02 3.139366e-02 -5.680015e-04) (0.000000e+00 0.000000e+00 0.000000e+00)) ((2.606211e-01 3.526533e-01 -9.226480e+01) (-7.184577e-05 2.342611e-04 1.516198e-02) (0.000000e+00 0.000000e+00 0.000000e+00))
1.000000e-01	((2.028839e+02 -4.581448e+02 8.549436e-03) (7.904996e-02 3.155001e-02 -5.739647e-04) (0.000000e+00 0.000000e+00 0.000000e+00)) ((2.581823e-01 3.418334e-01 -9.283978e+01) (-7.465430e-05 2.422618e-04 1.524081e-02) (0.000000e+00 0.000000e+00 0.000000e+00))
1.010000e-01	((2.038410e+02 -4.603798e+02 5.799800e-03) (7.944988e-02 3.171258e-02 -5.792607e-04) (0.000000e+00 0.000000e+00 0.000000e+00)) ((2.518620e-01 3.301189e-01 -9.329064e+01) (-7.692904e-05 2.491457e-04 1.532097e-02) (0.000000e+00 0.000000e+00 0.000000e+00))
1.020000e-01	((2.046453e+02 -4.623682e+02 2.737631e-03) (7.983274e-02 3.189042e-02 -5.878600e-04) (0.000000e+00 0.000000e+00 0.000000e+00)) ((2.420899e-01 3.153795e-01 -9.367655e+01) (-7.781321e-05 2.546380e-04 1.540549e-02) (0.000000e+00 0.000000e+00 0.000000e+00))
1.030000e-01	((2.054476e+02 -4.643818e+02 -2.271088e-05) (8.017909e-02 3.207155e-02 -6.029901e-04) (0.000000e+00 0.000000e+00 0.000000e+00)) ((2.270378e-01 2.986930e-01 -9.406530e+01) (-7.811347e-05 2.589538e-04 1.548991e-02) (0.000000e+00 0.000000e+00 0.000000e+00))
1.040000e-01	((2.062312e+02 -4.663588e+02 -2.339086e-03) (8.052628e-02 3.226358e-02 -6.185335e-04) (0.000000e+00 0.000000e+00 0.000000e+00)) ((2.062009e-01 2.764732e-01 -9.444556e+01) (-7.683326e-05 2.662528e-04 1.557938e-02) (0.000000e+00 0.000000e+00 0.000000e+00))
1.050000e-01	((2.070312e+02 -4.683627e+02 -3.373380e-03) (8.085585e-02 3.246696e-02 -6.340511e-04) (0.000000e+00 0.000000e+00 0.000000e+00)) ((1.734073e-01 2.482536e-01 -9.483257e+01) (-7.496395e-05 2.730165e-04 1.567208e-02) (0.000000e+00 0.000000e+00 0.000000e+00))
1.060000e-01	((2.076732e+02 -4.700325e+02 -5.007071e-03) (8.116317e-02 3.267601e-02 -6.424194e-04) (0.000000e+00 0.000000e+00 0.000000e+00)) ((1.407458e-01 2.172744e-01 -9.514109e+01) (-7.123028e-05 2.771615e-04 1.576644e-02) (0.000000e+00 0.000000e+00 0.000000e+00))
1.070000e-01	((2.082896e+02 -4.715925e+02 -7.578572e-03) (8.143083e-02 3.288410e-02 -6.549322e-04) (0.000000e+00 0.000000e+00 0.000000e+00)) ((1.056226e-01 1.872787e-01 -9.543010e+01) (-6.745768e-05 2.788847e-04 1.585822e-02) (0.000000e+00 0.000000e+00 0.000000e+00))
1.080000e-01	((2.090047e+02 -4.732703e+02 -1.090515e-02) (8.167321e-02 3.309360e-02 -6.678358e-04) (0.000000e+00 0.000000e+00 0.000000e+00)) ((7.684727e-02 1.605211e-01 -9.575753e+01) (-6.289520e-05 2.785106e-04 1.595005e-02) (0.000000e+00 0.000000e+00 0.000000e+00))
1.090000e-01	((2.098461e+02 -4.751495e+02 -1.359247e-02) (8.188302e-02 3.330702e-02 -6.864883e-04) (0.000000e+00 0.000000e+00 0.000000e+00)) ((5.277401e-02 1.385953e-01 -9.614191e+01) (-5.732644e-05 2.808806e-04 1.604085e-02) (0.000000e+00 0.000000e+00 0.000000e+00))
1.100000e-01	((2.108581e+02 -4.774026e+02 -1.725705e-02) (8.209526e-02 3.352353e-02 -7.069804e-04) (0.000000e+00 0.000000e+00 0.000000e+00)) ((3.508456e-02 1.211045e-01 -9.661426e+01) (-5.036720e-05 2.828959e-04 1.613209e-02) (0.000000e+00 0.000000e+00 0.000000e+00))
1.110000e-01	((2.120620e+02 -4.800942e+02 -1.998544e-02) (8.228221e-02 3.374242e-02 -7.181004e-04) (0.000000e+00 0.000000e+00 0.000000e+00)) ((1.006049e-02 1.031130e-01 -9.718823e+01) (-4.447165e-05 2.812097e-04 1.621987e-02) (0.000000e+00 0.000000e+00 0.000000e+00))