# Forces     
# CofR       : (0.000000e+00 0.000000e+00 0.000000e+00)
# Time       forces(pressure viscous porous) moment(pressure viscous porous)
1.000000e-03	((9.042085e+00 -1.123107e+01 -2.810368e-05) (3.033791e-02 -1.776693e-03 -2.311694e-07) (0.000000e+00 0.000000e+00 0.000000e+00)) ((-2.637116e-03 -3.794595e-03 -6.928613e+00) (3.079941e-07 -2.065381e-06 -2.219010e-04) (0.000000e+00 0.000000e+00 0.000000e+00))
2.000000e-03	((3.860669e+01 -5.321454e+01 -1.067484e-04) (2.914083e-02 7.404425e-04 -6.200240e-06) (0.000000e+00 0.000000e+00 0.000000e+00)) ((1.322402e-03 -1.117768e-02 -3.031374e+01) (1.006067e-05 4.406025e-06 2.051291e-03) (0.000000e+00 0.000000e+00 0.000000e+00))
3.000000e-03	((6.500187e+01 -9.178879e+01 1.058139e-04) (2.867092e-02 3.323293e-03 -3.765228e-06) (0.000000e+00 0.000000e+00 0.000000e+00)) ((-2.883264e-03 -2.088984e-02 -5.148941e+01) (4.537321e-06 8.175309e-06 4.298659e-03) (0.000000e+00 0.000000e+00 0.000000e+00))
4.000000e-03	((7.746161e+01 -1.107189e+02 7.599408e-04) (2.788853e-02 7.039616e-03 -1.196944e-05) (0.000000e+00 0.000000e+00 0.000000e+00)) ((-8.886856e-03 -2.654451e-02 -6.159179e+01) (1.997747e-05 4.455421e-06 7.665551e-03) (0.000000e+00 0.000000e+00 0.000000e+00))
5.000000e-03	((7.713251e+01 -1.122142e+02 7.707783e-04) (2.897305e-02 1.003443e-02 -1.450162e-05) (0.000000e+00 0.000000e+00 0.000000e+00)) ((-1.229040e-02 -2.787396e-02 -6.177750e+01) (2.910616e-05 3.142115e-06 1.031751e-02) (0.000000e+00 0.000000e+00 0.000000e+00))
6.000000e-03	((6.648471e+01 -9.947328e+01 -9.347364e-05) (3.061352e-02 1.259713e-02 -1.798827e-05) (0.000000e+00 0.000000e+00 0.000000e+00)) ((-1.286219e-02 -2.711002e-02 -5.394296e+01) (3.492820e-05 5.949165e-06 1.256308e-02) (0.000000e+00 0.000000e+00 0.000000e+00))
7.000000e-03	((4.940677e+01 -7.777498e+01 -7.273812e-04) (3.223732e-02 1.467558e-02 -2.026041e-05) (0.000000e+00 0.000000e+00 0.000000e+00)) ((-1.287881e-02 -2.428969e-02 -4.109332e+01) (3.795067e-05 5.341434e-07 1.437966e-02) (0.000000e+00 0.000000e+00 0.000000e+00))
8.000000e-03	((3.005013e+01 -5.286218e+01 -9.165321e-04) (3.359612e-02 1.588340e-02 -2.037211e-05) (0.000000e+00 0.000000e+00 0.000000e+00)) ((-8.384032e-03 -1.536973e-02 -2.645735e+01) (3.348325e-05 -2.846210e-06 1.545444e-02) (0.000000e+00 0.000000e+00 0.000000e+00))
9.000000e-03	((1.022633e+01 -2.690428e+01 -9.136375e-04) (3.487868e-02 1.649705e-02 -2.219587e-05) (0.000000e+00 0.000000e+00 0.000000e+00)) ((-9.233202e-03 -7.013211e-03 -1.143516e+01) (2.830950e-05 -1.877641e-05 1.596417e-02) (0.000000e+00 0.000000e+00 0.000000e+00))
1.000000e-02	((-4.875091e+00 -7.173516e+00 -7.400154e-04) (3.570219e-02 1.647911e-02 -2.269161e-05) (0.000000e+00 0.000000e+00 0.000000e+00)) ((-7.157211e-03 1.175620e-03 -5.221865e-02) (2.692749e-05 -2.841917e-05 1.595026e-02) (0.000000e+00 0.000000e+00 0.000000e+00))
1.100000e-02	((-1.523899e+01 6.408858e+00 -6.463714e-04) (3.607506e-02 1.607187e-02 -2.528290e-05) (0.000000e+00 0.000000e+00 0.000000e+00)) ((-5.374537e-03 8.489670e-03 7.660808e+00) (2.709683e-05 -3.476964e-05 1.562450e-02) (0.000000e+00 0.000000e+00 0.000000e+00))
1.200000e-02	((-1.904041e+01 1.136943e+01 -5.338705e-04) (3.616934e-02 1.545187e-02 -2.534673e-05) (0.000000e+00 0.000000e+00 0.000000e+00)) ((-1.649549e-03 1.264393e-02 1.034954e+01) (2.475972e-05 -3.803993e-05 1.512414e-02) (0.000000e+00 0.000000e+00 0.000000e+00))
1.300000e-02	((-1.668504e+01 8.322991e+00 -1.000839e-04) (3.615322e-02 1.481290e-02 -2.412241e-05) (0.000000e+00 0.000000e+00 0.000000e+00)) ((-3.532299e-03 1.135432e-02 8.382372e+00) (1.699531e-05 -3.686135e-05 1.460907e-02) (0.000000e+00 0.000000e+00 0.000000e+00))
1.400000e-02	((-9.345803e+00 -1.240971e+00 6.861722e-04) (3.613136e-02 1.423372e-02 -2.207313e-05) (0.000000e+00 0.000000e+00 0.000000e+00)) ((-1.833828e-03 8.959624e-03 2.654140e+00) (1.350591e-05 -3.616401e-05 1.414959e-02) (0.000000e+00 0.000000e+00 0.000000e+00))
1.500000e-02	((1.099316e+00 -1.492494e+01 1.567003e-03) (3.619955e-02 1.383277e-02 -1.934794e-05) (0.000000e+00 0.000000e+00 0.000000e+00)) ((-2.067209e-04 4.186013e-03 -5.408905e+00) (9.705109e-06 -3.407030e-05 1.385291e-02) (0.000000e+00 0.000000e+00 0.000000e+00))
1.600000e-02	((1.265981e+01 -3.024648e+01 1.772671e-03) (3.645495e-02 1.365478e-02 -1.622608e-05) (0.000000e+00 0.000000e+00 0.000000e+00)) ((4.368933e-03 -7.562331e-04 -1.433338e+01) (6.633227e-06 -3.313401e-05 1.376008e-02) (0.000000e+00 0.000000e+00 0.000000e+00))
1.700000e-02	((2.266642e+01 -4.363152e+01 1.752554e-03) (3.688437e-02 1.366700e-02 -1.350781e-05) (0.000000e+00 0.000000e+00 0.000000e+00)) ((8.758983e-03 -5.536323e-03 -2.209211e+01) (5.449729e-06 -3.180180e-05 1.384544e-02) (0.000000e+00 0.000000e+00 0.000000e+00))
1.800000e-02	((3.062686e+01 -5.463114e+01 1.434988e-03) (3.747759e-02 1.383575e-02 -1.151342e-05) (0.000000e+00 0.000000e+00 0.000000e+00)) ((1.354014e-02 -8.484560e-03 -2.834162e+01) (4.536368e-06 -3.230948e-05 1.408048e-02) (0.000000e+00 0.000000e+00 0.000000e+00))
1.900000e-02	((3.647259e+01 -6.327207e+01 1.262853e-03) (3.820636e-02 1.412213e-02 -1.065286e-05) (0.000000e+00 0.000000e+00 0.000000e+00)) ((1.932936e-02 -9.502326e-03 -3.304836e+01) (5.369554e-06 -3.369029e-05 1.443657e-02) (0.000000e+00 0.000000e+00 0.000000e+00))
2.000000e-02	((3.954383e+01 -6.861453e+01 1.066450e-03) (3.903271e-02 1.446795e-02 -1.033114e-05) (0.000000e+00 0.000000e+00 0.000000e+00)) ((2.426553e-02 -8.604607e-03 -3.572005e+01) (5.825413e-06 -3.558346e-05 1.484758e-02) (0.000000e+00 0.000000e+00 0.000000e+00))
2.100000e-02	((4.009201e+01 -7.093529e+01 9.862218e-04) (3.989635e-02 1.484920e-02 -1.066718e-05) (0.000000e+00 0.000000e+00 0.000000e+00)) ((2.535052e-02 -7.159058e-03 -3.654597e+01) (6.203192e-06 -3.860425e-05 1.528824e-02) (0.000000e+00 0.000000e+00 0.000000e+00))
2.200000e-02	((3.877802e+01 -7.108682e+01 7.171049e-04) (4.072970e-02 1.523942e-02 -1.013307e-05) (0.000000e+00 0.000000e+00 0.000000e+00)) ((2.685865e-02 -5.444872e-03 -3.605700e+01) (5.494553e-06 -4.155128e-05 1.573174e-02) (0.000000e+00 0.000000e+00 0.000000e+00))
2.300000e-02	((3.618667e+01 -6.963263e+01 2.295741e-04) (4.152070e-02 1.560715e-02 -9.795261e-06) (0.000000e+00 0.000000e+00 0.000000e+00)) ((3.123441e-02 -3.701753e-04 -3.463537e+01) (5.366145e-06 -4.416346e-05 1.615066e-02) (0.000000e+00 0.000000e+00 0.000000e+00))
2.400000e-02	((3.353996e+01 -6.811065e+01 -3.145167e-04) (4.226935e-02 1.593256e-02 -9.261799e-06) (0.000000e+00 0.000000e+00 0.000000e+00)) ((3.494836e-02 5.214723e-03 -3.318791e+01) (4.960284e-06 -4.606161e-05 1.653090e-02) (0.000000e+00 0.000000e+00 0.000000e+00))
2.500000e-02	((3.101655e+01 -6.655973e+01 -5.484712e-04) (4.292405e-02 1.620635e-02 -9.367728e-06) (0.000000e+00 0.000000e+00 0.000000e+00)) ((3.724755e-02 1.020707e-02 -3.181043e+01) (4.200539e-06 -4.795038e-05 1.685339e-02) (0.000000e+00 0.000000e+00 0.000000e+00))
2.600000e-02	((2.916420e+01 -6.563261e+01 -4.492216e-04) (4.349049e-02 1.642516e-02 -9.604982e-06) (0.000000e+00 0.000000e+00 0.000000e+00)) ((3.867453e-02 1.385608e-02 -3.090115e+01) (3.923802e-06 -4.777460e-05 1.711463e-02) (0.000000e+00 0.000000e+00 0.000000e+00))
2.700000e-02	((2.816501e+01 -6.550882e+01 -8.351229e-05) (4.398830e-02 1.658551e-02 -9.696661e-06) (0.000000e+00 0.000000e+00 0.000000e+00)) ((3.877088e-02 1.538390e-02 -3.058140e+01) (3.393698e-06 -4.771045e-05 1.731678e-02) (0.000000e+00 0.000000e+00 0.000000e+00))
2.800000e-02	((2.846092e+01 -6.684237e+01 4.114425e-04) (4.445294e-02 1.669326e-02 -9.238196e-06) (0.000000e+00 0.000000e+00 0.000000e+00)) ((3.845168e-02 1.469952e-02 -3.119234e+01) (2.881257e-06 -4.777597e-05 1.747069e-02) (0.000000e+00 0.000000e+00 0.000000e+00))
2.900000e-02	((2.995868e+01 -6.954844e+01 9.078487e-04) (4.491857e-02 1.676476e-02 -8.679997e-06) (0.000000e+00 0.000000e+00 0.000000e+00)) ((3.637977e-02 1.201425e-02 -3.266182e+01) (3.037922e-06 -4.794369e-05 1.759450e-02) (0.000000e+00 0.000000e+00 0.000000e+00))
3.000000e-02	((3.246255e+01 -7.347032e+01 1.622468e-03) (4.540915e-02 1.681654e-02 -7.319996e-06) (0.000000e+00 0.000000e+00 0.000000e+00)) ((3.517177e-02 8.407373e-03 -3.486209e+01) (3.721513e-06 -4.805746e-05 1.770496e-02) (0.000000e+00 0.000000e+00 0.000000e+00))
3.100000e-02	((3.558161e+01 -7.818251e+01 2.284141e-03) (4.593966e-02 1.686534e-02 -5.997609e-06) (0.000000e+00 0.000000e+00 0.000000e+00)) ((3.496352e-02 4.655729e-03 -3.751808e+01) (5.353822e-06 -4.824809e-05 1.781830e-02) (0.000000e+00 0.000000e+00 0.000000e+00))
3.200000e-02	((3.874003e+01 -8.298110e+01 2.867967e-03) (4.650835e-02 1.692471e-02 -4.337464e-06) (0.000000e+00 0.000000e+00 0.000000e+00)) ((3.542679e-02 9.309354e-04 -4.020932e+01) (7.129181e-06 -4.856260e-05 1.794505e-02) (0.000000e+00 0.000000e+00 0.000000e+00))
3.300000e-02	((4.173499e+01 -8.769525e+01 3.235611e-03) (4.711055e-02 1.700593e-02 -3.123797e-06) (0.000000e+00 0.000000e+00 0.000000e+00)) ((3.662154e-02 -1.730789e-03 -4.280403e+01) (9.693406e-06 -4.924176e-05 1.809397e-02) (0.000000e+00 0.000000e+00 0.000000e+00))
3.400000e-02	((4.462099e+01 -9.250286e+01 3.489629e-03) (4.774614e-02 1.711421e-02 -2.132332e-06) (0.000000e+00 0.000000e+00 0.000000e+00)) ((3.763331e-02 -3.677247e-03 -4.536636e+01) (1.206552e-05 -4.988783e-05 1.826877e-02) (0.000000e+00 0.000000e+00 0.000000e+00))
3.500000e-02	((4.711792e+01 -9.703609e+01 3.547687e-03) (4.840976e-02 1.725093e-02 -1.522088e-06) (0.000000e+00 0.000000e+00 0.000000e+00)) ((3.789586e-02 -4.649878e-03 -4.769079e+01) (1.450816e-05 -5.112677e-05 1.847033e-02) (0.000000e+00 0.000000e+00 0.000000e+00))
3.600000e-02	((4.915715e+01 -1.012021e+02 3.500598e-03) (4.909013e-02 1.741302e-02 -9.939700e-07) (0.000000e+00 0.000000e+00 0.000000e+00)) ((3.884359e-02 -4.561920e-03 -4.973067e+01) (1.657430e-05 -5.234438e-05 1.869479e-02) (0.000000e+00 0.000000e+00 0.000000e+00))
3.700000e-02	((5.076108e+01 -1.049831e+02 3.406512e-03) (4.977397e-02 1.759744e-02 -9.422597e-07) (0.000000e+00 0.000000e+00 0.000000e+00)) ((3.678758e-02 -4.818993e-03 -5.149264e+01) (1.862585e-05 -5.412454e-05 1.893786e-02) (0.000000e+00 0.000000e+00 0.000000e+00))
3.800000e-02	((5.208556e+01 -1.085481e+02 3.342865e-03) (5.044837e-02 1.779506e-02 -4.418045e-07) (0.000000e+00 0.000000e+00 0.000000e+00)) ((3.455630e-02 -5.471139e-03 -5.309016e+01) (2.013370e-05 -5.614247e-05 1.919022e-02) (0.000000e+00 0.000000e+00 0.000000e+00))
3.900000e-02	((5.336967e+01 -1.121747e+02 3.277094e-03) (5.111183e-02 1.800041e-02 -2.956247e-07) (0.000000e+00 0.000000e+00 0.000000e+00)) ((3.383093e-02 -5.299998e-03 -5.469637e+01) (2.128669e-05 -5.751560e-05 1.944653e-02) (0.000000e+00 0.000000e+00 0.000000e+00))
4.000000e-02	((5.464660e+01 -1.158231e+02 3.088841e-03) (5.176915e-02 1.820463e-02 -3.147795e-07) (0.000000e+00 0.000000e+00 0.000000e+00)) ((3.877603e-02 -2.090330e-03 -5.631534e+01) (2.190953e-05 -5.799302e-05 1.969987e-02) (0.000000e+00 0.000000e+00 0.000000e+00))
4.100000e-02	((5.594210e+01 -1.194396e+02 2.952217e-03) (5.241920e-02 1.840054e-02 -6.508231e-07) (0.000000e+00 0.000000e+00 0.000000e+00)) ((4.515500e-02 1.669849e-03 -5.794220e+01) (2.262826e-05 -5.845401e-05 1.994540e-02) (0.000000e+00 0.000000e+00 0.000000e+00))
4.200000e-02	((5.728357e+01 -1.230073e+02 2.898109e-03) (5.305538e-02 1.857645e-02 -9.760601e-07) (0.000000e+00 0.000000e+00 0.000000e+00)) ((5.251300e-02 5.488995e-03 -5.958266e+01) (2.328145e-05 -5.895868e-05 2.017475e-02) (0.000000e+00 0.000000e+00 0.000000e+00))
4.300000e-02	((5.881047e+01 -1.267054e+02 3.038139e-03) (5.367747e-02 1.873055e-02 -1.862526e-06) (0.000000e+00 0.000000e+00 0.000000e+00)) ((5.847075e-02 8.066762e-03 -6.133782e+01) (2.383981e-05 -5.943414e-05 2.038736e-02) (0.000000e+00 0.000000e+00 0.000000e+00))
4.400000e-02	((6.056459e+01 -1.305985e+02 3.283652e-03) (5.428768e-02 1.885943e-02 -2.619204e-06) (0.000000e+00 0.000000e+00 0.000000e+00)) ((6.350118e-02 9.856532e-03 -6.323952e+01) (2.427905e-05 -5.993128e-05 2.058130e-02) (0.000000e+00 0.000000e+00 0.000000e+00))
4.500000e-02	((6.255051e+01 -1.347248e+02 3.647569e-03) (5.488877e-02 1.896631e-02 -3.612237e-06) (0.000000e+00 0.000000e+00 0.000000e+00)) ((6.779108e-02 1.086322e-02 -6.530036e+01) (2.460469e-05 -6.034549e-05 2.075978e-02) (0.000000e+00 0.000000e+00 0.000000e+00))
4.600000e-02	((6.473492e+01 -1.390790e+02 4.061308e-03) (5.548222e-02 1.904910e-02 -4.798974e-06) (0.000000e+00 0.000000e+00 0.000000e+00)) ((6.984114e-02 1.075462e-02 -6.750452e+01) (2.550432e-05 -6.106322e-05 2.092174e-02) (0.000000e+00 0.000000e+00 0.000000e+00))
4.700000e-02	((6.705646e+01 -1.436211e+02 4.505927e-03) (5.605780e-02 1.909592e-02 -6.126011e-06) (0.000000e+00 0.000000e+00 0.000000e+00)) ((6.980506e-02 9.122713e-03 -6.981735e+01) (2.636333e-05 -6.287713e-05 2.105882e-02) (0.000000e+00 0.000000e+00 0.000000e+00))
4.800000e-02	((6.943710e+01 -1.482864e+02 4.928173e-03) (5.663100e-02 1.913044e-02 -7.330704e-06) (0.000000e+00 0.000000e+00 0.000000e+00)) ((6.848895e-02 6.934618e-03 -7.219068e+01) (2.766936e-05 -6.538266e-05 2.118868e-02) (0.000000e+00 0.000000e+00 0.000000e+00))
4.900000e-02	((7.177572e+01 -1.529676e+02 5.311146e-03) (5.720168e-02 1.916848e-02 -8.539696e-06) (0.000000e+00 0.000000e+00 0.000000e+00)) ((6.450932e-02 4.683245e-03 -7.455690e+01) (2.879466e-05 -6.529719e-05 2.132215e-02) (0.000000e+00 0.000000e+00 0.000000e+00))
5.000000e-02	((7.414297e+01 -1.578073e+02 5.611734e-03) (5.777614e-02 1.921632e-02 -9.116402e-06) (0.000000e+00 0.000000e+00 0.000000e+00)) ((6.068154e-02 2.850925e-03 -7.698264e+01) (2.970127e-05 -6.576823e-05 2.146328e-02) (0.000000e+00 0.000000e+00 0.000000e+00))
5.100000e-02	((7.654259e+01 -1.628280e+02 5.787482e-03) (5.835188e-02 1.927153e-02 -9.667366e-06) (0.000000e+00 0.000000e+00 0.000000e+00)) ((5.766496e-02 1.652067e-03 -7.947584e+01) (3.130606e-05 -6.668804e-05 2.161028e-02) (0.000000e+00 0.000000e+00 0.000000e+00))
5.200000e-02	((7.892397e+01 -1.679370e+02 5.865688e-03) (5.892834e-02 1.933036e-02 -9.902157e-06) (0.000000e+00 0.000000e+00 0.000000e+00)) ((5.454070e-02 7.762668e-04 -8.198903e+01) (3.286590e-05 -6.825623e-05 2.176011e-02) (0.000000e+00 0.000000e+00 0.000000e+00))
5.300000e-02	((8.130981e+01 -1.731572e+02 5.865432e-03) (5.950194e-02 1.939041e-02 -1.037282e-05) (0.000000e+00 0.000000e+00 0.000000e+00)) ((5.379039e-02 7.173725e-04 -8.453834e+01) (3.461222e-05 -6.992053e-05 2.191105e-02) (0.000000e+00 0.000000e+00 0.000000e+00))
5.400000e-02	((8.375419e+01 -1.785489e+02 5.751991e-03) (6.008623e-02 1.946126e-02 -1.077418e-05) (0.000000e+00 0.000000e+00 0.000000e+00)) ((5.589075e-02 1.485596e-03 -8.716236e+01) (3.527747e-05 -7.171967e-05 2.207000e-02) (0.000000e+00 0.000000e+00 0.000000e+00))
5.500000e-02	((8.625268e+01 -1.840690e+02 5.607062e-03) (6.068374e-02 1.955564e-02 -1.142658e-05) (0.000000e+00 0.000000e+00 0.000000e+00)) ((6.007298e-02 3.166712e-03 -8.984583e+01) (3.613773e-05 -7.299716e-05 2.224622e-02) (0.000000e+00 0.000000e+00 0.000000e+00))
5.600000e-02	((8.880114e+01 -1.896823e+02 5.447309e-03) (6.129292e-02 1.965919e-02 -1.207470e-05) (0.000000e+00 0.000000e+00 0.000000e+00)) ((6.653583e-02 5.812423e-03 -9.257663e+01) (3.752349e-05 -7.484363e-05 2.242948e-02) (0.000000e+00 0.000000e+00 0.000000e+00))
5.700000e-02	((9.139620e+01 -1.953660e+02 5.337088e-03) (6.190339e-02 1.976826e-02 -1.321947e-05) (0.000000e+00 0.000000e+00 0.000000e+00)) ((7.385213e-02 8.654572e-03 -9.534848e+01) (3.906137e-05 -7.600675e-05 2.261647e-02) (0.000000e+00 0.000000e+00 0.000000e+00))
5.800000e-02	((9.402277e+01 -2.010796e+02 5.324768e-03) (6.251309e-02 1.987507e-02 -1.364540e-05) (0.000000e+00 0.000000e+00 0.000000e+00)) ((8.216220e-02 1.161349e-02 -9.814421e+01) (3.969119e-05 -7.763277e-05 2.280185e-02) (0.000000e+00 0.000000e+00 0.000000e+00))
5.900000e-02	((9.669904e+01 -2.068422e+02 5.480071e-03) (6.311167e-02 1.997910e-02 -1.464205e-05) (0.000000e+00 0.000000e+00 0.000000e+00)) ((9.018444e-02 1.427078e-02 -1.009752e+02) (4.071157e-05 -7.899115e-05 2.298492e-02) (0.000000e+00 0.000000e+00 0.000000e+00))
6.000000e-02	((9.942916e+01 -2.126574e+02 5.734682e-03) (6.369378e-02 2.007450e-02 -1.541093e-05) (0.000000e+00 0.000000e+00 0.000000e+00)) ((9.665956e-02 1.621901e-02 -1.038435e+02) (4.071889e-05 -8.042710e-05 2.316130e-02) (0.000000e+00 0.000000e+00 0.000000e+00))
6.100000e-02	((1.022132e+02 -2.185352e+02 6.187904e-03) (6.425993e-02 2.016703e-02 -1.667604e-05) (0.000000e+00 0.000000e+00 0.000000e+00)) ((1.010092e-01 1.676305e-02 -1.067524e+02) (4.078206e-05 -8.129339e-05 2.333512e-02) (0.000000e+00 0.000000e+00 0.000000e+00))
6.200000e-02	((1.050582e+02 -2.244990e+02 6.737666e-03) (6.481925e-02 2.026529e-02 -1.744126e-05) (0.000000e+00 0.000000e+00 0.000000e+00)) ((1.054021e-01 1.730073e-02 -1.097123e+02) (4.155761e-05 -8.315984e-05 2.351271e-02) (0.000000e+00 0.000000e+00 0.000000e+00))
6.300000e-02	((1.079711e+02 -2.305801e+02 7.438093e-03) (6.539067e-02 2.037462e-02 -1.766513e-05) (0.000000e+00 0.000000e+00 0.000000e+00)) ((1.073728e-01 1.670743e-02 -1.127363e+02) (4.187648e-05 -8.502640e-05 2.369954e-02) (0.000000e+00 0.000000e+00 0.000000e+00))
6.400000e-02	((1.109478e+02 -2.367848e+02 8.141519e-03) (6.596886e-02 2.048771e-02 -1.756435e-05) (0.000000e+00 0.000000e+00 0.000000e+00)) ((1.085372e-01 1.614760e-02 -1.158242e+02) (4.213843e-05 -8.695340e-05 2.389044e-02) (0.000000e+00 0.000000e+00 0.000000e+00))
6.500000e-02	((1.139702e+02 -2.430990e+02 8.793023e-03) (6.655629e-02 2.061001e-02 -1.783263e-05) (0.000000e+00 0.000000e+00 0.000000e+00)) ((1.074861e-01 1.492373e-02 -1.189661e+02) (4.272983e-05 -8.916734e-05 2.408899e-02) (0.000000e+00 0.000000e+00 0.000000e+00))
6.600000e-02	((1.170520e+02 -2.495543e+02 9.358245e-03) (6.715526e-02 2.073974e-02 -1.802598e-05) (0.000000e+00 0.000000e+00 0.000000e+00)) ((1.046502e-01 1.352745e-02 -1.221767e+02) (4.278155e-05 -9.163196e-05 2.429426e-02) (0.000000e+00 0.000000e+00 0.000000e+00))
6.700000e-02	((1.202099e+02 -2.561872e+02 9.834703e-03) (6.776270e-02 2.087792e-02 -1.871308e-05) (0.000000e+00 0.000000e+00 0.000000e+00)) ((1.012195e-01 1.227900e-02 -1.254724e+02) (4.300056e-05 -9.320580e-05 2.450615e-02) (0.000000e+00 0.000000e+00 0.000000e+00))
6.800000e-02	((1.234466e+02 -2.630005e+02 1.016279e-02) (6.837562e-02 2.102205e-02 -1.945833e-05) (0.000000e+00 0.000000e+00 0.000000e+00)) ((9.765852e-02 1.159885e-02 -1.288554e+02) (4.348593e-05 -9.490730e-05 2.472256e-02) (0.000000e+00 0.000000e+00 0.000000e+00))
6.900000e-02	((1.267552e+02 -2.699798e+02 1.038697e-02) (6.900083e-02 2.117824e-02 -2.003580e-05) (0.000000e+00 0.000000e+00 0.000000e+00)) ((9.380188e-02 1.126127e-02 -1.323182e+02) (4.403613e-05 -9.587222e-05 2.494767e-02) (0.000000e+00 0.000000e+00 0.000000e+00))
7.000000e-02	((1.301369e+02 -2.771200e+02 1.054185e-02) (6.962986e-02 2.134067e-02 -2.008441e-05) (0.000000e+00 0.000000e+00 0.000000e+00)) ((9.083034e-02 1.157391e-02 -1.358594e+02) (4.503767e-05 -9.773468e-05 2.517682e-02) (0.000000e+00 0.000000e+00 0.000000e+00))
7.100000e-02	((1.335871e+02 -2.844092e+02 1.060377e-02) (7.026679e-02 2.151216e-02 -2.070581e-05) (0.000000e+00 0.000000e+00 0.000000e+00)) ((8.768638e-02 1.232300e-02 -1.394736e+02) (4.611463e-05 -9.862147e-05 2.541237e-02) (0.000000e+00 0.000000e+00 0.000000e+00))
7.200000e-02	((1.370932e+02 -2.918126e+02 1.058787e-02) (7.091148e-02 2.169189e-02 -2.066234e-05) (0.000000e+00 0.000000e+00 0.000000e+00)) ((8.667272e-02 1.398064e-02 -1.431448e+02) (4.718887e-05 -1.003785e-04 2.565390e-02) (0.000000e+00 0.000000e+00 0.000000e+00))
7.300000e-02	((1.406495e+02 -2.993162e+02 1.059127e-02) (7.156147e-02 2.187953e-02 -2.029969e-05) (0.000000e+00 0.000000e+00 0.000000e+00)) ((8.820173e-02 1.641869e-02 -1.468672e+02) (4.788745e-05 -1.022025e-04 2.590078e-02) (0.000000e+00 0.000000e+00 0.000000e+00))
7.400000e-02	((1.442441e+02 -3.068964e+02 1.055872e-02) (7.221625e-02 2.207393e-02 -2.011463e-05) (0.000000e+00 0.000000e+00 0.000000e+00)) ((8.909473e-02 1.850418e-02 -1.506295e+02) (4.884658e-05 -1.048152e-04 2.615207e-02) (0.000000e+00 0.000000e+00 0.000000e+00))
7.500000e-02	((1.478763e+02 -3.145494e+02 1.054547e-02) (7.287279e-02 2.227447e-02 -2.006870e-05) (0.000000e+00 0.000000e+00 0.000000e+00)) ((8.993730e-02 2.038038e-02 -1.544296e+02) (4.991735e-05 -1.069117e-04 2.640713e-02) (0.000000e+00 0.000000e+00 0.000000e+00))
7.600000e-02	((1.515424e+02 -3.222629e+02 1.061048e-02) (7.353353e-02 2.248176e-02 -1.937933e-05) (0.000000e+00 0.000000e+00 0.000000e+00)) ((9.100329e-02 2.192631e-02 -1.582623e+02) (5.139534e-05 -1.099444e-04 2.666643e-02) (0.000000e+00 0.000000e+00 0.000000e+00))
7.700000e-02	((1.552555e+02 -3.300680e+02 1.082983e-02) (7.419460e-02 2.269448e-02 -1.830942e-05) (0.000000e+00 0.000000e+00 0.000000e+00)) ((8.961279e-02 2.199877e-02 -1.621430e+02) (5.249020e-05 -1.125778e-04 2.692889e-02) (0.000000e+00 0.000000e+00 0.000000e+00))
7.800000e-02	((1.590211e+02 -3.379746e+02 1.107986e-02) (7.485631e-02 2.291141e-02 -1.702922e-05) (0.000000e+00 0.000000e+00 0.000000e+00)) ((8.832158e-02 2.146069e-02 -1.660767e+02) (5.312738e-05 -1.152150e-04 2.719372e-02) (0.000000e+00 0.000000e+00 0.000000e+00))
7.900000e-02	((1.628438e+02 -3.459948e+02 1.136703e-02) (7.551428e-02 2.313380e-02 -1.545820e-05) (0.000000e+00 0.000000e+00 0.000000e+00)) ((8.692355e-02 2.020763e-02 -1.700694e+02) (5.416755e-05 -1.183022e-04 2.746125e-02) (0.000000e+00 0.000000e+00 0.000000e+00))
8.000000e-02	((1.667311e+02 -3.541408e+02 1.163214e-02) (7.616746e-02 2.335904e-02 -1.365957e-05) (0.000000e+00 0.000000e+00 0.000000e+00)) ((8.473665e-02 1.871745e-02 -1.741278e+02) (5.481791e-05 -1.209155e-04 2.772995e-02) (0.000000e+00 0.000000e+00 0.000000e+00))
8.100000e-02	((1.706888e+02 -3.624264e+02 1.184923e-02) (7.681115e-02 2.358755e-02 -1.143453e-05) (0.000000e+00 0.000000e+00 0.000000e+00)) ((8.162182e-02 1.653863e-02 -1.782582e+02) (5.557104e-05 -1.241768e-04 2.799952e-02) (0.000000e+00 0.000000e+00 0.000000e+00))
8.200000e-02	((1.747212e+02 -3.708576e+02 1.212702e-02) (7.744387e-02 2.381732e-02 -9.293098e-06) (0.000000e+00 0.000000e+00 0.000000e+00)) ((7.841986e-02 1.407207e-02 -1.824639e+02) (5.534779e-05 -1.264794e-04 2.826873e-02) (0.000000e+00 0.000000e+00 0.000000e+00))
8.300000e-02	((1.788295e+02 -3.794364e+02 1.235017e-02) (7.805231e-02 2.404781e-02 -7.018447e-06) (0.000000e+00 0.000000e+00 0.000000e+00)) ((7.360276e-02 1.126671e-02 -1.867459e+02) (5.531632e-05 -1.293826e-04 2.853536e-02) (0.000000e+00 0.000000e+00 0.000000e+00))
8.400000e-02	((1.830118e+02 -3.881567e+02 1.248426e-02) (7.862661e-02 2.427623e-02 -3.721312e-06) (0.000000e+00 0.000000e+00 0.000000e+00)) ((7.132120e-02 9.698404e-03 -1.911015e+02) (5.503188e-05 -1.343158e-04 2.879657e-02) (0.000000e+00 0.000000e+00 0.000000e+00))
8.500000e-02	((1.872649e+02 -3.970080e+02 1.259862e-02) (7.918158e-02 2.450661e-02 -1.402411e-06) (0.000000e+00 0.000000e+00 0.000000e+00)) ((6.839203e-02 8.010429e-03 -1.955263e+02) (5.510103e-05 -1.383296e-04 2.905652e-02) (0.000000e+00 0.000000e+00 0.000000e+00))
8.600000e-02	((1.915871e+02 -4.059863e+02 1.273187e-02) (7.971708e-02 2.473813e-02 8.568562e-07) (0.000000e+00 0.000000e+00 0.000000e+00)) ((6.771064e-02 7.609646e-03 -2.000181e+02) (5.489443e-05 -1.417021e-04 2.931456e-02) (0.000000e+00 0.000000e+00 0.000000e+00))
8.700000e-02	((1.959769e+02 -4.150875e+02 1.279058e-02) (8.020923e-02 2.496858e-02 2.542044e-06) (0.000000e+00 0.000000e+00 0.000000e+00)) ((6.765435e-02 8.186933e-03 -2.045754e+02) (5.523732e-05 -1.465601e-04 2.956601e-02) (0.000000e+00 0.000000e+00 0.000000e+00))
8.800000e-02	((2.004260e+02 -4.242922e+02 1.278111e-02) (8.065941e-02 2.520290e-02 3.009075e-06) (0.000000e+00 0.000000e+00 0.000000e+00)) ((6.762708e-02 9.091416e-03 -2.091888e+02) (5.497774e-05 -1.481172e-04 2.981315e-02) (0.000000e+00 0.000000e+00 0.000000e+00))
8.900000e-02	((2.049312e+02 -4.335972e+02 1.274672e-02) (8.109113e-02 2.544401e-02 2.561495e-06) (0.000000e+00 0.000000e+00 0.000000e+00)) ((6.737852e-02 1.047102e-02 -2.138563e+02) (5.480996e-05 -1.487698e-04 3.006065e-02) (0.000000e+00 0.000000e+00 0.000000e+00))
9.000000e-02	((2.094887e+02 -4.429996e+02 1.277944e-02) (8.153826e-02 2.569316e-02 4.945879e-06) (0.000000e+00 0.000000e+00 0.000000e+00)) ((6.630360e-02 1.184746e-02 -2.185762e+02) (5.444467e-05 -1.524159e-04 3.031450e-02) (0.000000e+00 0.000000e+00 0.000000e+00))
9.100000e-02	((2.140875e+02 -4.524858e+02 1.282187e-02) (8.202650e-02 2.594956e-02 7.904932e-06) (0.000000e+00 0.000000e+00 0.000000e+00)) ((6.294916e-02 1.286869e-02 -2.233401e+02) (5.368629e-05 -1.578150e-04 3.057929e-02) (0.000000e+00 0.000000e+00 0.000000e+00))
9.200000e-02	((2.187298e+02 -4.620636e+02 1.293544e-02) (8.253340e-02 2.620815e-02 1.175681e-05) (0.000000e+00 0.000000e+00 0.000000e+00)) ((6.055402e-02 1.389954e-02 -2.281512e+02) (5.288097e-05 -1.666848e-04 3.084877e-02) (0.000000e+00 0.000000e+00 0.000000e+00))
9.300000e-02	((2.234243e+02 -4.717528e+02 1.322193e-02) (8.306492e-02 2.647150e-02 1.368361e-05) (0.000000e+00 0.000000e+00 0.000000e+00)) ((5.625721e-02 1.374526e-02 -2.330197e+02) (5.246554e-05 -1.730464e-04 3.112549e-02) (0.000000e+00 0.000000e+00 0.000000e+00))
9.400000e-02	((2.281710e+02 -4.815577e+02 1.347917e-02) (8.362257e-02 2.673850e-02 1.649381e-05) (0.000000e+00 0.000000e+00 0.000000e+00)) ((5.451134e-02 1.416667e-02 -2.379469e+02) (5.166517e-05 -1.793200e-04 3.140875e-02) (0.000000e+00 0.000000e+00 0.000000e+00))
9.500000e-02	((2.329714e+02 -4.914804e+02 1.380225e-02) (8.419433e-02 2.700896e-02 2.016484e-05) (0.000000e+00 0.000000e+00 0.000000e+00)) ((5.520377e-02 1.534223e-02 -2.429342e+02) (5.143456e-05 -1.893384e-04 3.169651e-02) (0.000000e+00 0.000000e+00 0.000000e+00))
9.600000e-02	((2.378269e+02 -5.015182e+02 1.410293e-02) (8.478237e-02 2.728360e-02 2.279882e-05) (0.000000e+00 0.000000e+00 0.000000e+00)) ((5.562411e-02 1.602430e-02 -2.479811e+02) (5.069746e-05 -1.971431e-04 3.198894e-02) (0.000000e+00 0.000000e+00 0.000000e+00))
9.700000e-02	((2.427381e+02 -5.116641e+02 1.437433e-02) (8.539473e-02 2.756549e-02 2.379153e-05) (0.000000e+00 0.000000e+00 0.000000e+00)) ((5.416557e-02 1.510118e-02 -2.530857e+02) (4.991789e-05 -1.996040e-04 3.228906e-02) (0.000000e+00 0.000000e+00 0.000000e+00))
9.800000e-02	((2.477057e+02 -5.219172e+02 1.460813e-02) (8.601989e-02 2.785294e-02 2.456285e-05) (0.000000e+00 0.000000e+00 0.000000e+00)) ((5.362680e-02 1.404651e-02 -2.582479e+02) (4.931593e-05 -2.014479e-04 3.259384e-02) (0.000000e+00 0.000000e+00 0.000000e+00))
9.900000e-02	((2.527399e+02 -5.322841e+02 1.484708e-02) (8.664742e-02 2.814429e-02 2.546836e-05) (0.000000e+00 0.000000e+00 0.000000e+00)) ((5.087340e-02 1.205994e-02 -2.634740e+02) (4.881790e-05 -2.030332e-04 3.290085e-02) (0.000000e+00 0.000000e+00 0.000000e+00))
1.000000e-01	((2.578367e+02 -5.427553e+02 1.494945e-02) (8.728384e-02 2.844059e-02 2.649949e-05) (0.000000e+00 0.000000e+00 0.000000e+00)) ((4.837810e-02 1.029457e-02 -2.687594e+02) (4.832507e-05 -2.044792e-04 3.321124e-02) (0.000000e+00 0.000000e+00 0.000000e+00))
1.010000e-01	((2.629912e+02 -5.533209e+02 1.502873e-02) (8.793660e-02 2.874369e-02 2.902353e-05) (0.000000e+00 0.000000e+00 0.000000e+00)) ((4.533653e-02 8.773078e-03 -2.740986e+02) (4.742987e-05 -2.083225e-04 3.352733e-02) (0.000000e+00 0.000000e+00 0.000000e+00))
1.020000e-01	((2.681703e+02 -5.639131e+02 1.495493e-02) (8.859613e-02 2.905129e-02 3.071253e-05) (0.000000e+00 0.000000e+00 0.000000e+00)) ((3.739169e-02 6.249099e-03 -2.794565e+02) (4.705134e-05 -2.134507e-04 3.384633e-02) (0.000000e+00 0.000000e+00 0.000000e+00))
1.030000e-01	((2.734379e+02 -5.746651e+02 1.500210e-02) (8.926636e-02 2.936434e-02 3.135532e-05) (0.000000e+00 0.000000e+00 0.000000e+00)) ((3.462655e-02 6.869786e-03 -2.849023e+02) (4.630872e-05 -2.159377e-04 3.416954e-02) (0.000000e+00 0.000000e+00 0.000000e+00))
1.040000e-01	((2.787474e+02 -5.854824e+02 1.500033e-02) (8.994619e-02 2.968143e-02 3.336688e-05) (0.000000e+00 0.000000e+00 0.000000e+00)) ((3.401128e-02 9.374824e-03 -2.903864e+02) (4.519720e-05 -2.219562e-04 3.449585e-02) (0.000000e+00 0.000000e+00 0.000000e+00))
1.050000e-01	((2.841035e+02 -5.963746e+02 1.504412e-02) (9.063584e-02 3.000291e-02 3.572833e-05) (0.000000e+00 0.000000e+00 0.000000e+00)) ((3.593243e-02 1.432176e-02 -2.959140e+02) (4.390844e-05 -2.272276e-04 3.482585e-02) (0.000000e+00 0.000000e+00 0.000000e+00))
1.060000e-01	((2.894977e+02 -6.073291e+02 1.512428e-02) (9.133618e-02 3.032737e-02 3.838073e-05) (0.000000e+00 0.000000e+00 0.000000e+00)) ((3.657344e-02 1.936225e-02 -3.014782e+02) (4.255881e-05 -2.331027e-04 3.515885e-02) (0.000000e+00 0.000000e+00 0.000000e+00))
1.070000e-01	((2.949281e+02 -6.183412e+02 1.527767e-02) (9.204627e-02 3.065528e-02 3.931882e-05) (0.000000e+00 0.000000e+00 0.000000e+00)) ((3.977031e-02 2.595726e-02 -3.070765e+02) (4.166723e-05 -2.352084e-04 3.549524e-02) (0.000000e+00 0.000000e+00 0.000000e+00))
1.080000e-01	((3.004008e+02 -6.294237e+02 1.525114e-02) (9.276958e-02 3.098566e-02 4.068467e-05) (0.000000e+00 0.000000e+00 0.000000e+00)) ((4.335018e-02 3.231967e-02 -3.127158e+02) (4.153289e-05 -2.356890e-04 3.583484e-02) (0.000000e+00 0.000000e+00 0.000000e+00))
1.090000e-01	((3.059094e+02 -6.405585e+02 1.506788e-02) (9.350109e-02 3.131992e-02 4.258332e-05) (0.000000e+00 0.000000e+00 0.000000e+00)) ((4.620661e-02 3.820025e-02 -3.183876e+02) (4.175399e-05 -2.368639e-04 3.617784e-02) (0.000000e+00 0.000000e+00 0.000000e+00))
1.100000e-01	((3.114563e+02 -6.517478e+02 1.492575e-02) (9.424266e-02 3.165656e-02 4.429108e-05) (0.000000e+00 0.000000e+00 0.000000e+00)) ((5.047381e-02 4.293495e-02 -3.240939e+02) (4.271969e-05 -2.367428e-04 3.652351e-02) (0.000000e+00 0.000000e+00 0.000000e+00))
1.110000e-01	((3.170401e+02 -6.629814e+02 1.491833e-02) (9.499206e-02 3.199671e-02 4.589187e-05) (0.000000e+00 0.000000e+00 0.000000e+00)) ((5.371561e-02 4.608149e-02 -3.298311e+02) (4.426209e-05 -2.375080e-04 3.687245e-02) (0.000000e+00 0.000000e+00 0.000000e+00))