# Forces     
# CofR       : (0.000000e+00 0.000000e+00 0.000000e+00)
# Time       forces(pressure viscous porous) moment(pressure viscous porous)
1.000000e-03	((1.079757e+00 -1.674534e+00 -9.201891e-05) (5.955485e-03 -7.015625e-05 4.959026e-07) (0.000000e+00 0.000000e+00 0.000000e+00)) ((1.024819e-04 2.780671e-05 -4.502733e-01) (-1.344903e-07 -1.156009e-06 1.155704e-04) (0.000000e+00 0.000000e+00 0.000000e+00))
2.000000e-03	((4.265009e+00 -6.770828e+00 -3.124996e-04) (6.139633e-03 1.023633e-03 1.612284e-06) (0.000000e+00 0.000000e+00 0.000000e+00)) ((-3.076380e-04 -1.839538e-04 -1.718529e+00) (-5.032813e-07 -2.446927e-06 5.407087e-04) (0.000000e+00 0.000000e+00 0.000000e+00))
3.000000e-03	((6.324570e+00 -1.051519e+01 -2.755957e-04) (7.140666e-03 2.068255e-03 -3.093563e-06) (0.000000e+00 0.000000e+00 0.000000e+00)) ((-8.940472e-04 -6.737960e-04 -2.536579e+00) (-3.824131e-06 -3.648225e-07 9.563817e-04) (0.000000e+00 0.000000e+00 0.000000e+00))
4.000000e-03	((6.693777e+00 -1.175403e+01 -2.431967e-04) (8.932589e-03 3.154026e-03 -4.994068e-06) (0.000000e+00 0.000000e+00 0.000000e+00)) ((1.543944e-03 -1.949799e-04 -2.686307e+00) (-2.641052e-06 -2.095669e-06 1.407181e-03) (0.000000e+00 0.000000e+00 0.000000e+00))
5.000000e-03	((6.352721e+00 -1.204196e+01 -1.427170e-03) (1.041225e-02 3.890905e-03 -6.486460e-06) (0.000000e+00 0.000000e+00 0.000000e+00)) ((1.111667e-02 2.250437e-03 -2.569700e+00) (3.770307e-08 7.293457e-07 1.763105e-03) (0.000000e+00 0.000000e+00 0.000000e+00))
6.000000e-03	((6.143038e+00 -1.271132e+01 -1.686692e-03) (1.157571e-02 4.382494e-03 -1.438705e-05) (0.000000e+00 0.000000e+00 0.000000e+00)) ((2.138736e-02 5.234758e-03 -2.538481e+00) (7.591713e-07 6.252436e-06 1.999063e-03) (0.000000e+00 0.000000e+00 0.000000e+00))
7.000000e-03	((6.264148e+00 -1.393877e+01 -1.572229e-03) (1.247445e-02 4.709639e-03 -1.715197e-05) (0.000000e+00 0.000000e+00 0.000000e+00)) ((2.300151e-02 5.444337e-03 -2.665877e+00) (-6.835241e-07 7.891711e-06 2.165147e-03) (0.000000e+00 0.000000e+00 0.000000e+00))
8.000000e-03	((7.065157e+00 -1.625661e+01 -5.143553e-04) (1.323661e-02 4.953380e-03 -2.007335e-05) (0.000000e+00 0.000000e+00 0.000000e+00)) ((2.297033e-02 4.652860e-03 -3.078365e+00) (-4.698151e-07 8.622479e-06 2.287463e-03) (0.000000e+00 0.000000e+00 0.000000e+00))
9.000000e-03	((8.338347e+00 -1.931878e+01 7.902321e-04) (1.392296e-02 5.115710e-03 -1.322423e-05) (0.000000e+00 0.000000e+00 0.000000e+00)) ((2.160129e-02 3.724942e-03 -3.680129e+00) (4.506835e-07 5.697089e-06 2.384260e-03) (0.000000e+00 0.000000e+00 0.000000e+00))
1.000000e-02	((9.749072e+00 -2.255957e+01 1.639088e-03) (1.459116e-02 5.246861e-03 -1.540826e-05) (0.000000e+00 0.000000e+00 0.000000e+00)) ((2.274825e-02 5.253609e-03 -4.328491e+00) (1.108444e-07 4.839910e-06 2.476096e-03) (0.000000e+00 0.000000e+00 0.000000e+00))
1.100000e-02	((1.099779e+01 -2.554680e+01 1.947263e-03) (1.525350e-02 5.337293e-03 -1.846334e-05) (0.000000e+00 0.000000e+00 0.000000e+00)) ((2.473421e-02 7.336521e-03 -4.904075e+00) (-5.952573e-07 8.089608e-06 2.563957e-03) (0.000000e+00 0.000000e+00 0.000000e+00))
1.200000e-02	((1.216731e+01 -2.839146e+01 1.527694e-03) (1.589871e-02 5.416613e-03 -2.293894e-05) (0.000000e+00 0.000000e+00 0.000000e+00)) ((2.964284e-02 1.174041e-02 -5.439094e+00) (-2.089791e-06 8.414804e-06 2.647815e-03) (0.000000e+00 0.000000e+00 0.000000e+00))
1.300000e-02	((1.323568e+01 -3.113593e+01 7.877908e-04) (1.655507e-02 5.490265e-03 -2.097711e-05) (0.000000e+00 0.000000e+00 0.000000e+00)) ((3.362072e-02 1.591261e-02 -5.933582e+00) (3.645868e-07 7.493672e-06 2.737290e-03) (0.000000e+00 0.000000e+00 0.000000e+00))
1.400000e-02	((1.428361e+01 -3.385619e+01 -4.797373e-04) (1.720442e-02 5.598666e-03 -2.768161e-05) (0.000000e+00 0.000000e+00 0.000000e+00)) ((3.117145e-02 1.797841e-02 -6.419161e+00) (1.685907e-08 7.467721e-06 2.833684e-03) (0.000000e+00 0.000000e+00 0.000000e+00))
1.500000e-02	((1.550042e+01 -3.691743e+01 -7.874831e-04) (1.787004e-02 5.714043e-03 -3.381351e-05) (0.000000e+00 0.000000e+00 0.000000e+00)) ((3.332462e-02 1.855339e-02 -6.976585e+00) (1.752835e-07 9.777343e-06 2.933608e-03) (0.000000e+00 0.000000e+00 0.000000e+00))
1.600000e-02	((1.707042e+01 -4.068550e+01 -9.703358e-04) (1.855376e-02 5.841251e-03 -3.926793e-05) (0.000000e+00 0.000000e+00 0.000000e+00)) ((2.374876e-02 1.416878e-02 -7.685114e+00) (4.728338e-07 1.183787e-05 3.035878e-03) (0.000000e+00 0.000000e+00 0.000000e+00))
1.700000e-02	((1.893995e+01 -4.513176e+01 6.299842e-04) (1.927966e-02 5.974027e-03 -4.277489e-05) (0.000000e+00 0.000000e+00 0.000000e+00)) ((1.202719e-02 7.703533e-03 -8.529318e+00) (-3.576524e-07 1.374218e-05 3.140039e-03) (0.000000e+00 0.000000e+00 0.000000e+00))
1.800000e-02	((2.105353e+01 -5.017815e+01 2.472723e-03) (2.004031e-02 6.106674e-03 -4.444931e-05) (0.000000e+00 0.000000e+00 0.000000e+00)) ((5.680237e-03 2.888971e-03 -9.487355e+00) (-1.111314e-06 1.488945e-05 3.245555e-03) (0.000000e+00 0.000000e+00 0.000000e+00))
1.900000e-02	((2.319424e+01 -5.548586e+01 3.903683e-03) (2.080679e-02 6.226539e-03 -4.321204e-05) (0.000000e+00 0.000000e+00 0.000000e+00)) ((9.979269e-03 2.364373e-03 -1.047105e+01) (-1.520029e-06 1.473686e-05 3.347974e-03) (0.000000e+00 0.000000e+00 0.000000e+00))
2.000000e-02	((2.527470e+01 -6.082146e+01 4.280380e-03) (2.156016e-02 6.335546e-03 -4.343097e-05) (0.000000e+00 0.000000e+00 0.000000e+00)) ((1.643164e-02 2.998207e-03 -1.144076e+01) (-2.266890e-06 1.457074e-05 3.447524e-03) (0.000000e+00 0.000000e+00 0.000000e+00))
2.100000e-02	((2.726346e+01 -6.614324e+01 2.811827e-03) (2.227941e-02 6.426179e-03 -4.142432e-05) (0.000000e+00 0.000000e+00 0.000000e+00)) ((2.622314e-02 6.413866e-03 -1.238420e+01) (-1.932963e-06 1.367398e-05 3.542493e-03) (0.000000e+00 0.000000e+00 0.000000e+00))
2.200000e-02	((2.912172e+01 -7.127836e+01 3.144118e-04) (2.296024e-02 6.507835e-03 -4.288852e-05) (0.000000e+00 0.000000e+00 0.000000e+00)) ((3.382579e-02 1.048725e-02 -1.327859e+01) (-1.676002e-06 1.215720e-05 3.634044e-03) (0.000000e+00 0.000000e+00 0.000000e+00))
2.300000e-02	((3.094419e+01 -7.638213e+01 -1.710025e-03) (2.359783e-02 6.576858e-03 -4.673899e-05) (0.000000e+00 0.000000e+00 0.000000e+00)) ((3.430899e-02 1.155379e-02 -1.416370e+01) (-1.433423e-06 1.247732e-05 3.721123e-03) (0.000000e+00 0.000000e+00 0.000000e+00))
2.400000e-02	((3.288756e+01 -8.171742e+01 -3.012176e-03) (2.419843e-02 6.642003e-03 -5.136962e-05) (0.000000e+00 0.000000e+00 0.000000e+00)) ((4.011670e-02 1.378966e-02 -1.510391e+01) (-1.234919e-06 1.217918e-05 3.806565e-03) (0.000000e+00 0.000000e+00 0.000000e+00))
2.500000e-02	((3.508540e+01 -8.756114e+01 -3.615903e-03) (2.477506e-02 6.710921e-03 -5.607671e-05) (0.000000e+00 0.000000e+00 0.000000e+00)) ((5.558946e-02 1.909273e-02 -1.615470e+01) (-9.081972e-07 1.241212e-05 3.893382e-03) (0.000000e+00 0.000000e+00 0.000000e+00))
2.600000e-02	((3.756981e+01 -9.396709e+01 -3.319268e-03) (2.534771e-02 6.785545e-03 -5.938818e-05) (0.000000e+00 0.000000e+00 0.000000e+00)) ((7.723555e-02 2.560138e-02 -1.732934e+01) (-6.432430e-07 1.181295e-05 3.982549e-03) (0.000000e+00 0.000000e+00 0.000000e+00))
2.700000e-02	((4.034122e+01 -1.009803e+02 -1.717382e-03) (2.590493e-02 6.849022e-03 -6.068859e-05) (0.000000e+00 0.000000e+00 0.000000e+00)) ((8.932805e-02 2.841568e-02 -1.862770e+01) (5.178796e-08 1.139714e-05 4.068965e-03) (0.000000e+00 0.000000e+00 0.000000e+00))
2.800000e-02	((4.333003e+01 -1.084890e+02 5.589574e-04) (2.644676e-02 6.896908e-03 -6.061185e-05) (0.000000e+00 0.000000e+00 0.000000e+00)) ((9.139636e-02 2.559709e-02 -2.002037e+01) (3.745470e-07 9.752345e-06 4.151310e-03) (0.000000e+00 0.000000e+00 0.000000e+00))
2.900000e-02	((4.641855e+01 -1.162903e+02 2.856174e-03) (2.695322e-02 6.917187e-03 -5.932635e-05) (0.000000e+00 0.000000e+00 0.000000e+00)) ((9.124951e-02 2.358800e-02 -2.145585e+01) (6.661699e-07 7.943267e-06 4.225755e-03) (0.000000e+00 0.000000e+00 0.000000e+00))
3.000000e-02	((4.951552e+01 -1.241604e+02 4.762919e-03) (2.738990e-02 6.904253e-03 -5.903822e-05) (0.000000e+00 0.000000e+00 0.000000e+00)) ((8.382311e-02 1.976035e-02 -2.289211e+01) (3.180135e-07 6.071599e-06 4.289145e-03) (0.000000e+00 0.000000e+00 0.000000e+00))
3.100000e-02	((5.262936e+01 -1.321168e+02 5.100802e-03) (2.772405e-02 6.852546e-03 -6.147228e-05) (0.000000e+00 0.000000e+00 0.000000e+00)) ((7.252419e-02 1.746254e-02 -2.433294e+01) (2.328264e-07 6.207666e-06 4.340210e-03) (0.000000e+00 0.000000e+00 0.000000e+00))
3.200000e-02	((5.578791e+01 -1.401437e+02 4.215227e-03) (2.805022e-02 6.817147e-03 -6.496445e-05) (0.000000e+00 0.000000e+00 0.000000e+00)) ((4.993874e-02 1.164213e-02 -2.579025e+01) (-2.935126e-07 4.464779e-06 4.394486e-03) (0.000000e+00 0.000000e+00 0.000000e+00))
3.300000e-02	((5.906496e+01 -1.483841e+02 2.863069e-03) (2.835287e-02 6.779416e-03 -7.236872e-05) (0.000000e+00 0.000000e+00 0.000000e+00)) ((3.517991e-02 1.014601e-02 -2.729603e+01) (-4.491287e-07 5.121734e-06 4.447525e-03) (0.000000e+00 0.000000e+00 0.000000e+00))
3.400000e-02	((6.248539e+01 -1.568361e+02 1.694926e-03) (2.871223e-02 6.775100e-03 -7.933610e-05) (0.000000e+00 0.000000e+00 0.000000e+00)) ((2.115254e-02 9.211710e-03 -2.886049e+01) (-8.325478e-07 3.720213e-06 4.511265e-03) (0.000000e+00 0.000000e+00 0.000000e+00))
3.500000e-02	((6.601786e+01 -1.654785e+02 6.936006e-04) (2.920658e-02 6.822012e-03 -8.827253e-05) (0.000000e+00 0.000000e+00 0.000000e+00)) ((1.487667e-02 1.076188e-02 -3.047074e+01) (-1.232725e-06 4.577231e-06 4.594626e-03) (0.000000e+00 0.000000e+00 0.000000e+00))
3.600000e-02	((6.965410e+01 -1.742890e+02 5.880959e-04) (2.965899e-02 6.879605e-03 -9.644925e-05) (0.000000e+00 0.000000e+00 0.000000e+00)) ((9.366522e-03 1.193623e-02 -3.212078e+01) (-9.532824e-07 4.950522e-06 4.675577e-03) (0.000000e+00 0.000000e+00 0.000000e+00))
3.700000e-02	((7.338912e+01 -1.832908e+02 7.701710e-04) (3.013797e-02 6.958046e-03 -1.004805e-04) (0.000000e+00 0.000000e+00 0.000000e+00)) ((1.946182e-03 1.043485e-02 -3.380965e+01) (-5.337826e-07 2.904215e-06 4.761617e-03) (0.000000e+00 0.000000e+00 0.000000e+00))
3.800000e-02	((7.724275e+01 -1.924704e+02 1.511656e-03) (3.071836e-02 7.054720e-03 -1.000600e-04) (0.000000e+00 0.000000e+00 0.000000e+00)) ((-2.211981e-02 7.624614e-04 -3.554386e+01) (-2.137240e-06 -2.811457e-06 4.858861e-03) (0.000000e+00 0.000000e+00 0.000000e+00))
3.900000e-02	((8.120958e+01 -2.018640e+02 2.474604e-03) (3.134133e-02 7.170101e-03 -9.879135e-05) (0.000000e+00 0.000000e+00 0.000000e+00)) ((-3.754700e-02 -7.546335e-03 -3.732495e+01) (-4.057277e-06 -8.313568e-06 4.963193e-03) (0.000000e+00 0.000000e+00 0.000000e+00))
4.000000e-02	((8.533937e+01 -2.115777e+02 2.692281e-03) (3.203478e-02 7.302136e-03 -1.018097e-04) (0.000000e+00 0.000000e+00 0.000000e+00)) ((-5.282051e-02 -1.698910e-02 -3.917705e+01) (-5.639997e-06 -1.082309e-05 5.075519e-03) (0.000000e+00 0.000000e+00 0.000000e+00))
4.100000e-02	((8.958229e+01 -2.215301e+02 2.945672e-03) (3.277791e-02 7.453312e-03 -1.065149e-04) (0.000000e+00 0.000000e+00 0.000000e+00)) ((-6.279590e-02 -2.381966e-02 -4.108132e+01) (-5.101216e-06 -1.300759e-05 5.194376e-03) (0.000000e+00 0.000000e+00 0.000000e+00))
4.200000e-02	((9.391502e+01 -2.316400e+02 3.731884e-03) (3.356700e-02 7.624908e-03 -1.084991e-04) (0.000000e+00 0.000000e+00 0.000000e+00)) ((-6.657642e-02 -2.825361e-02 -4.302546e+01) (-6.226118e-06 -1.559048e-05 5.319465e-03) (0.000000e+00 0.000000e+00 0.000000e+00))
4.300000e-02	((9.832380e+01 -2.418106e+02 3.638370e-03) (3.437535e-02 7.811973e-03 -1.052910e-04) (0.000000e+00 0.000000e+00 0.000000e+00)) ((-6.406383e-02 -2.933890e-02 -4.500415e+01) (-5.688476e-06 -1.909795e-05 5.447942e-03) (0.000000e+00 0.000000e+00 0.000000e+00))
4.400000e-02	((1.027843e+02 -2.519414e+02 3.564486e-03) (3.522684e-02 8.014552e-03 -1.043115e-04) (0.000000e+00 0.000000e+00 0.000000e+00)) ((-5.763361e-02 -3.137768e-02 -4.700213e+01) (-5.396170e-06 -2.113904e-05 5.582222e-03) (0.000000e+00 0.000000e+00 0.000000e+00))
4.500000e-02	((1.072146e+02 -2.618217e+02 4.241322e-03) (3.611190e-02 8.238084e-03 -9.815451e-05) (0.000000e+00 0.000000e+00 0.000000e+00)) ((-4.189000e-02 -2.924241e-02 -4.898217e+01) (-3.458833e-06 -2.635713e-05 5.721519e-03) (0.000000e+00 0.000000e+00 0.000000e+00))
4.600000e-02	((1.116864e+02 -2.715789e+02 5.701468e-03) (3.703531e-02 8.484359e-03 -9.468082e-05) (0.000000e+00 0.000000e+00 0.000000e+00)) ((-3.298914e-02 -3.084368e-02 -5.097210e+01) (-2.387951e-06 -3.118337e-05 5.867188e-03) (0.000000e+00 0.000000e+00 0.000000e+00))
4.700000e-02	((1.161543e+02 -2.811384e+02 7.281390e-03) (3.799726e-02 8.754259e-03 -8.820658e-05) (0.000000e+00 0.000000e+00 0.000000e+00)) ((-2.600865e-02 -3.431715e-02 -5.295453e+01) (-1.014256e-06 -3.754739e-05 6.018774e-03) (0.000000e+00 0.000000e+00 0.000000e+00))
4.800000e-02	((1.206225e+02 -2.905004e+02 9.930719e-03) (3.900763e-02 9.048651e-03 -8.442363e-05) (0.000000e+00 0.000000e+00 0.000000e+00)) ((-3.745041e-02 -4.409776e-02 -5.492866e+01) (-1.545952e-07 -4.326253e-05 6.177490e-03) (0.000000e+00 0.000000e+00 0.000000e+00))
4.900000e-02	((1.250124e+02 -2.995127e+02 1.148814e-02) (4.005992e-02 9.368861e-03 -7.516864e-05) (0.000000e+00 0.000000e+00 0.000000e+00)) ((-5.622454e-02 -5.301678e-02 -5.686120e+01) (1.273327e-06 -4.987509e-05 6.342844e-03) (0.000000e+00 0.000000e+00 0.000000e+00))
5.000000e-02	((1.293649e+02 -3.083126e+02 1.430569e-02) (4.115341e-02 9.713645e-03 -6.778570e-05) (0.000000e+00 0.000000e+00 0.000000e+00)) ((-7.265187e-02 -6.243495e-02 -5.877239e+01) (1.983632e-06 -5.615298e-05 6.515237e-03) (0.000000e+00 0.000000e+00 0.000000e+00))
5.100000e-02	((1.336020e+02 -3.167348e+02 1.635555e-02) (4.228230e-02 1.008022e-02 -6.013898e-05) (0.000000e+00 0.000000e+00 0.000000e+00)) ((-8.319708e-02 -6.548344e-02 -6.062717e+01) (4.083481e-06 -6.153413e-05 6.693756e-03) (0.000000e+00 0.000000e+00 0.000000e+00))
5.200000e-02	((1.376585e+02 -3.245828e+02 1.882499e-02) (4.343255e-02 1.046281e-02 -5.398554e-05) (0.000000e+00 0.000000e+00 0.000000e+00)) ((-9.449406e-02 -6.576266e-02 -6.238849e+01) (4.424739e-06 -6.713811e-05 6.876474e-03) (0.000000e+00 0.000000e+00 0.000000e+00))
5.300000e-02	((1.414767e+02 -3.317441e+02 2.102267e-02) (4.460213e-02 1.087045e-02 -5.215517e-05) (0.000000e+00 0.000000e+00 0.000000e+00)) ((-1.213423e-01 -7.119918e-02 -6.403225e+01) (7.594853e-06 -7.146172e-05 7.064898e-03) (0.000000e+00 0.000000e+00 0.000000e+00))
5.400000e-02	((1.450123e+02 -3.380698e+02 2.340139e-02) (4.578517e-02 1.130113e-02 -5.123855e-05) (0.000000e+00 0.000000e+00 0.000000e+00)) ((-1.447300e-01 -7.346845e-02 -6.553197e+01) (8.435026e-06 -7.585619e-05 7.258490e-03) (0.000000e+00 0.000000e+00 0.000000e+00))
5.500000e-02	((1.482270e+02 -3.434899e+02 2.438686e-02) (4.698768e-02 1.176346e-02 -5.160879e-05) (0.000000e+00 0.000000e+00 0.000000e+00)) ((-1.848605e-01 -8.065134e-02 -6.687284e+01) (1.098119e-05 -7.935954e-05 7.458810e-03) (0.000000e+00 0.000000e+00 0.000000e+00))
5.600000e-02	((1.511649e+02 -3.480577e+02 2.662624e-02) (4.820871e-02 1.225257e-02 -5.296089e-05) (0.000000e+00 0.000000e+00 0.000000e+00)) ((-2.096000e-01 -8.151275e-02 -6.807219e+01) (1.166055e-05 -8.162673e-05 7.665242e-03) (0.000000e+00 0.000000e+00 0.000000e+00))
5.700000e-02	((1.538679e+02 -3.519121e+02 2.833264e-02) (4.945384e-02 1.277757e-02 -4.945882e-05) (0.000000e+00 0.000000e+00 0.000000e+00)) ((-2.306616e-01 -8.052444e-02 -6.915413e+01) (1.457613e-05 -8.568028e-05 7.879615e-03) (0.000000e+00 0.000000e+00 0.000000e+00))
5.800000e-02	((1.564420e+02 -3.552589e+02 2.922419e-02) (5.071924e-02 1.332232e-02 -4.550561e-05) (0.000000e+00 0.000000e+00 0.000000e+00)) ((-2.643864e-01 -8.353702e-02 -7.016680e+01) (1.414407e-05 -8.839787e-05 8.099714e-03) (0.000000e+00 0.000000e+00 0.000000e+00))
5.900000e-02	((1.589375e+02 -3.582442e+02 2.992642e-02) (5.200420e-02 1.389395e-02 -3.765188e-05) (0.000000e+00 0.000000e+00 0.000000e+00)) ((-2.920219e-01 -8.606931e-02 -7.113711e+01) (1.647267e-05 -9.217484e-05 8.326044e-03) (0.000000e+00 0.000000e+00 0.000000e+00))
6.000000e-02	((1.613419e+02 -3.609605e+02 2.951803e-02) (5.330024e-02 1.447277e-02 -2.902072e-05) (0.000000e+00 0.000000e+00 0.000000e+00)) ((-3.241963e-01 -9.048896e-02 -7.206601e+01) (1.312298e-05 -9.322763e-05 8.553938e-03) (0.000000e+00 0.000000e+00 0.000000e+00))
6.100000e-02	((1.636371e+02 -3.634266e+02 2.937303e-02) (5.462082e-02 1.506936e-02 -2.372475e-05) (0.000000e+00 0.000000e+00 0.000000e+00)) ((-3.456151e-01 -9.521668e-02 -7.294967e+01) (1.559089e-05 -9.604188e-05 8.786048e-03) (0.000000e+00 0.000000e+00 0.000000e+00))
6.200000e-02	((1.658222e+02 -3.657180e+02 3.008656e-02) (5.595950e-02 1.567360e-02 -1.526378e-05) (0.000000e+00 0.000000e+00 0.000000e+00)) ((-3.561204e-01 -9.903027e-02 -7.379239e+01) (1.357146e-05 -9.855594e-05 9.019563e-03) (0.000000e+00 0.000000e+00 0.000000e+00))
6.300000e-02	((1.678613e+02 -3.677814e+02 3.106375e-02) (5.728520e-02 1.627595e-02 -8.679995e-07) (0.000000e+00 0.000000e+00 0.000000e+00)) ((-3.547999e-01 -1.006690e-01 -7.457897e+01) (1.507452e-05 -1.043237e-04 9.250223e-03) (0.000000e+00 0.000000e+00 0.000000e+00))
6.400000e-02	((1.697792e+02 -3.697038e+02 3.072762e-02) (5.862732e-02 1.687491e-02 1.441816e-05) (0.000000e+00 0.000000e+00 0.000000e+00)) ((-3.675548e-01 -1.092497e-01 -7.532096e+01) (1.260330e-05 -1.098312e-04 9.479959e-03) (0.000000e+00 0.000000e+00 0.000000e+00))
6.500000e-02	((1.716382e+02 -3.716327e+02 3.009428e-02) (5.999251e-02 1.747770e-02 2.173488e-05) (0.000000e+00 0.000000e+00 0.000000e+00)) ((-3.753163e-01 -1.185511e-01 -7.604777e+01) (1.622225e-05 -1.133227e-04 9.711019e-03) (0.000000e+00 0.000000e+00 0.000000e+00))
6.600000e-02	((1.734107e+02 -3.735851e+02 2.830014e-02) (6.136586e-02 1.806816e-02 3.140989e-05) (0.000000e+00 0.000000e+00 0.000000e+00)) ((-3.824196e-01 -1.257793e-01 -7.675002e+01) (1.690684e-05 -1.201524e-04 9.938637e-03) (0.000000e+00 0.000000e+00 0.000000e+00))
6.700000e-02	((1.751160e+02 -3.756635e+02 2.679071e-02) (6.274292e-02 1.866164e-02 2.670964e-05) (0.000000e+00 0.000000e+00 0.000000e+00)) ((-3.850759e-01 -1.301550e-01 -7.743982e+01) (2.359929e-05 -1.225128e-04 1.016588e-02) (0.000000e+00 0.000000e+00 0.000000e+00))
6.800000e-02	((1.768257e+02 -3.780363e+02 2.543398e-02) (6.411013e-02 1.923583e-02 3.006114e-05) (0.000000e+00 0.000000e+00 0.000000e+00)) ((-3.807530e-01 -1.290996e-01 -7.814927e+01) (2.401491e-05 -1.250129e-04 1.038811e-02) (0.000000e+00 0.000000e+00 0.000000e+00))
6.900000e-02	((1.785208e+02 -3.806433e+02 2.530321e-02) (6.547572e-02 1.980794e-02 3.035030e-05) (0.000000e+00 0.000000e+00 0.000000e+00)) ((-3.674548e-01 -1.256031e-01 -7.886925e+01) (2.843151e-05 -1.267880e-04 1.060967e-02) (0.000000e+00 0.000000e+00 0.000000e+00))
7.000000e-02	((1.801832e+02 -3.833930e+02 2.574993e-02) (6.683986e-02 2.035867e-02 4.340738e-05) (0.000000e+00 0.000000e+00 0.000000e+00)) ((-3.646135e-01 -1.260980e-01 -7.958593e+01) (2.858214e-05 -1.300594e-04 1.082720e-02) (0.000000e+00 0.000000e+00 0.000000e+00))
7.100000e-02	((1.817220e+02 -3.861033e+02 2.798822e-02) (6.819029e-02 2.090122e-02 5.381414e-05) (0.000000e+00 0.000000e+00 0.000000e+00)) ((-3.697084e-01 -1.297982e-01 -8.026180e+01) (3.245297e-05 -1.334620e-04 1.104130e-02) (0.000000e+00 0.000000e+00 0.000000e+00))
7.200000e-02	((1.831909e+02 -3.888243e+02 2.915262e-02) (6.952824e-02 2.141827e-02 6.934951e-05) (0.000000e+00 0.000000e+00 0.000000e+00)) ((-3.802589e-01 -1.388549e-01 -8.091537e+01) (3.152632e-05 -1.371304e-04 1.124972e-02) (0.000000e+00 0.000000e+00 0.000000e+00))
7.300000e-02	((1.847569e+02 -3.920341e+02 2.987689e-02) (7.087356e-02 2.194243e-02 7.966095e-05) (0.000000e+00 0.000000e+00 0.000000e+00)) ((-3.737320e-01 -1.430309e-01 -8.163508e+01) (3.373666e-05 -1.402758e-04 1.145841e-02) (0.000000e+00 0.000000e+00 0.000000e+00))
7.400000e-02	((1.864522e+02 -3.958227e+02 3.037737e-02) (7.222050e-02 2.244720e-02 8.963446e-05) (0.000000e+00 0.000000e+00 0.000000e+00)) ((-3.704414e-01 -1.475700e-01 -8.243537e+01) (3.394828e-05 -1.450325e-04 1.166198e-02) (0.000000e+00 0.000000e+00 0.000000e+00))
7.500000e-02	((1.883161e+02 -4.003171e+02 3.140795e-02) (7.356563e-02 2.294554e-02 1.034099e-04) (0.000000e+00 0.000000e+00 0.000000e+00)) ((-3.645721e-01 -1.490259e-01 -8.333570e+01) (3.460326e-05 -1.495052e-04 1.186189e-02) (0.000000e+00 0.000000e+00 0.000000e+00))
7.600000e-02	((1.902775e+02 -4.053146e+02 3.540684e-02) (7.492218e-02 2.342155e-02 1.177486e-04) (0.000000e+00 0.000000e+00 0.000000e+00)) ((-3.504054e-01 -1.443713e-01 -8.429960e+01) (3.474634e-05 -1.561782e-04 1.205736e-02) (0.000000e+00 0.000000e+00 0.000000e+00))
7.700000e-02	((1.924574e+02 -4.109750e+02 3.689324e-02) (7.629777e-02 2.387089e-02 1.311316e-04) (0.000000e+00 0.000000e+00 0.000000e+00)) ((-3.400507e-01 -1.441477e-01 -8.537453e+01) (3.649021e-05 -1.582362e-04 1.224738e-02) (0.000000e+00 0.000000e+00 0.000000e+00))
7.800000e-02	((1.948055e+02 -4.171820e+02 3.621716e-02) (7.769924e-02 2.429584e-02 1.428357e-04) (0.000000e+00 0.000000e+00 0.000000e+00)) ((-3.582022e-01 -1.587487e-01 -8.653718e+01) (3.399958e-05 -1.613793e-04 1.243438e-02) (0.000000e+00 0.000000e+00 0.000000e+00))
7.900000e-02	((1.973672e+02 -4.239065e+02 3.602332e-02) (7.913692e-02 2.470795e-02 1.539528e-04) (0.000000e+00 0.000000e+00 0.000000e+00)) ((-3.856435e-01 -1.706321e-01 -8.779857e+01) (3.120782e-05 -1.603252e-04 1.261913e-02) (0.000000e+00 0.000000e+00 0.000000e+00))
8.000000e-02	((1.999130e+02 -4.306854e+02 3.352566e-02) (8.061453e-02 2.511384e-02 1.706164e-04) (0.000000e+00 0.000000e+00 0.000000e+00)) ((-4.045940e-01 -1.881766e-01 -8.905182e+01) (2.742657e-05 -1.663875e-04 1.280341e-02) (0.000000e+00 0.000000e+00 0.000000e+00))
8.100000e-02	((2.022920e+02 -4.372338e+02 3.390350e-02) (8.210709e-02 2.554050e-02 1.870682e-04) (0.000000e+00 0.000000e+00 0.000000e+00)) ((-3.903805e-01 -1.873434e-01 -9.022519e+01) (2.564040e-05 -1.662446e-04 1.299096e-02) (0.000000e+00 0.000000e+00 0.000000e+00))
8.200000e-02	((2.045845e+02 -4.436528e+02 3.136593e-02) (8.360181e-02 2.599712e-02 2.004497e-04) (0.000000e+00 0.000000e+00 0.000000e+00)) ((-3.670458e-01 -1.861914e-01 -9.135107e+01) (2.516001e-05 -1.725312e-04 1.318399e-02) (0.000000e+00 0.000000e+00 0.000000e+00))
8.300000e-02	((2.067385e+02 -4.499895e+02 2.683734e-02) (8.510462e-02 2.647348e-02 2.109389e-04) (0.000000e+00 0.000000e+00 0.000000e+00)) ((-3.513146e-01 -1.845645e-01 -9.241160e+01) (2.613933e-05 -1.717148e-04 1.338170e-02) (0.000000e+00 0.000000e+00 0.000000e+00))
8.400000e-02	((2.085572e+02 -4.560219e+02 2.113601e-02) (8.662941e-02 2.696721e-02 2.221559e-04) (0.000000e+00 0.000000e+00 0.000000e+00)) ((-3.458588e-01 -1.926756e-01 -9.332655e+01) (2.432517e-05 -1.722902e-04 1.358696e-02) (0.000000e+00 0.000000e+00 0.000000e+00))
8.500000e-02	((2.100013e+02 -4.617789e+02 1.729045e-02) (8.818790e-02 2.746927e-02 2.309575e-04) (0.000000e+00 0.000000e+00 0.000000e+00)) ((-3.407300e-01 -1.963053e-01 -9.408564e+01) (2.460128e-05 -1.699657e-04 1.380087e-02) (0.000000e+00 0.000000e+00 0.000000e+00))
8.600000e-02	((2.108828e+02 -4.668830e+02 1.711600e-02) (8.975203e-02 2.797738e-02 2.436814e-04) (0.000000e+00 0.000000e+00 0.000000e+00)) ((-3.342162e-01 -1.994445e-01 -9.460631e+01) (2.315324e-05 -1.744467e-04 1.402142e-02) (0.000000e+00 0.000000e+00 0.000000e+00))
8.700000e-02	((2.111834e+02 -4.711837e+02 1.618908e-02) (9.130966e-02 2.849518e-02 2.550347e-04) (0.000000e+00 0.000000e+00 0.000000e+00)) ((-3.337374e-01 -2.004484e-01 -9.487719e+01) (2.292141e-05 -1.755428e-04 1.425011e-02) (0.000000e+00 0.000000e+00 0.000000e+00))
8.800000e-02	((2.110203e+02 -4.747113e+02 1.569021e-02) (9.286502e-02 2.904067e-02 2.619987e-04) (0.000000e+00 0.000000e+00 0.000000e+00)) ((-3.271439e-01 -2.030148e-01 -9.494134e+01) (2.295347e-05 -1.781787e-04 1.449052e-02) (0.000000e+00 0.000000e+00 0.000000e+00))
8.900000e-02	((2.106144e+02 -4.778305e+02 1.281670e-02) (9.445454e-02 2.962315e-02 2.642004e-04) (0.000000e+00 0.000000e+00 0.000000e+00)) ((-3.199209e-01 -2.062007e-01 -9.490407e+01) (2.387737e-05 -1.771016e-04 1.474497e-02) (0.000000e+00 0.000000e+00 0.000000e+00))
9.000000e-02	((2.104274e+02 -4.811097e+02 8.752105e-03) (9.603972e-02 3.024654e-02 2.613599e-04) (0.000000e+00 0.000000e+00 0.000000e+00)) ((-3.318339e-01 -2.217219e-01 -9.495843e+01) (2.457974e-05 -1.793985e-04 1.501152e-02) (0.000000e+00 0.000000e+00 0.000000e+00))
9.100000e-02	((2.107938e+02 -4.850767e+02 3.295382e-03) (9.762818e-02 3.089237e-02 2.538975e-04) (0.000000e+00 0.000000e+00 0.000000e+00)) ((-3.424012e-01 -2.339522e-01 -9.524329e+01) (2.483055e-05 -1.795067e-04 1.528493e-02) (0.000000e+00 0.000000e+00 0.000000e+00))
9.200000e-02	((2.116648e+02 -4.897950e+02 -1.388701e-03) (9.918839e-02 3.156861e-02 2.408440e-04) (0.000000e+00 0.000000e+00 0.000000e+00)) ((-3.481888e-01 -2.479477e-01 -9.574707e+01) (2.544515e-05 -1.790079e-04 1.556495e-02) (0.000000e+00 0.000000e+00 0.000000e+00))
9.300000e-02	((2.128903e+02 -4.951310e+02 -5.550809e-03) (1.007373e-01 3.225247e-02 2.271323e-04) (0.000000e+00 0.000000e+00 0.000000e+00)) ((-3.222882e-01 -2.448411e-01 -9.641726e+01) (2.700552e-05 -1.743308e-04 1.584759e-02) (0.000000e+00 0.000000e+00 0.000000e+00))
9.400000e-02	((2.143068e+02 -5.008466e+02 -9.190117e-03) (1.022518e-01 3.293405e-02 2.159342e-04) (0.000000e+00 0.000000e+00 0.000000e+00)) ((-3.174950e-01 -2.474782e-01 -9.718711e+01) (2.819234e-05 -1.726427e-04 1.612882e-02) (0.000000e+00 0.000000e+00 0.000000e+00))
9.500000e-02	((2.158284e+02 -5.068529e+02 -1.468448e-02) (1.037220e-01 3.356236e-02 2.155069e-04) (0.000000e+00 0.000000e+00 0.000000e+00)) ((-3.159370e-01 -2.445112e-01 -9.802552e+01) (3.297266e-05 -1.761870e-04 1.639356e-02) (0.000000e+00 0.000000e+00 0.000000e+00))
9.600000e-02	((2.174975e+02 -5.131802e+02 -1.681675e-02) (1.051233e-01 3.411752e-02 2.149220e-04) (0.000000e+00 0.000000e+00 0.000000e+00)) ((-3.203453e-01 -2.430378e-01 -9.894907e+01) (3.474873e-05 -1.767287e-04 1.663238e-02) (0.000000e+00 0.000000e+00 0.000000e+00))
9.700000e-02	((2.193931e+02 -5.197851e+02 -2.012454e-02) (1.064954e-01 3.461197e-02 2.120924e-04) (0.000000e+00 0.000000e+00 0.000000e+00)) ((-3.470556e-01 -2.513850e-01 -9.997269e+01) (3.694496e-05 -1.784344e-04 1.685104e-02) (0.000000e+00 0.000000e+00 0.000000e+00))
9.800000e-02	((2.216299e+02 -5.267941e+02 -2.285940e-02) (1.078211e-01 3.506234e-02 2.192387e-04) (0.000000e+00 0.000000e+00 0.000000e+00)) ((-3.623645e-01 -2.569519e-01 -1.011369e+02) (3.742157e-05 -1.835454e-04 1.705205e-02) (0.000000e+00 0.000000e+00 0.000000e+00))
9.900000e-02	((2.241495e+02 -5.341020e+02 -2.666157e-02) (1.091126e-01 3.546555e-02 2.271355e-04) (0.000000e+00 0.000000e+00 0.000000e+00)) ((-3.705434e-01 -2.587899e-01 -1.024038e+02) (3.982213e-05 -1.872493e-04 1.723695e-02) (0.000000e+00 0.000000e+00 0.000000e+00))
1.000000e-01	((2.268635e+02 -5.416248e+02 -3.283640e-02) (1.103962e-01 3.585143e-02 2.259509e-04) (0.000000e+00 0.000000e+00 0.000000e+00)) ((-3.840066e-01 -2.718211e-01 -1.037371e+02) (4.319085e-05 -1.910490e-04 1.741443e-02) (0.000000e+00 0.000000e+00 0.000000e+00))
1.010000e-01	((2.297114e+02 -5.492502e+02 -4.471101e-02) (1.116642e-01 3.622305e-02 2.180485e-04) (0.000000e+00 0.000000e+00 0.000000e+00)) ((-3.741663e-01 -2.773372e-01 -1.051070e+02) (4.438004e-05 -1.887876e-04 1.758677e-02) (0.000000e+00 0.000000e+00 0.000000e+00))
1.020000e-01	((2.326135e+02 -5.569563e+02 -5.193944e-02) (1.128934e-01 3.658041e-02 1.924819e-04) (0.000000e+00 0.000000e+00 0.000000e+00)) ((-3.501554e-01 -2.766624e-01 -1.064944e+02) (4.845199e-05 -1.876892e-04 1.775249e-02) (0.000000e+00 0.000000e+00 0.000000e+00))
1.030000e-01	((2.355412e+02 -5.647105e+02 -5.683153e-02) (1.141296e-01 3.692736e-02 1.678563e-04) (0.000000e+00 0.000000e+00 0.000000e+00)) ((-3.281031e-01 -2.658549e-01 -1.078895e+02) (5.394466e-05 -1.851866e-04 1.791457e-02) (0.000000e+00 0.000000e+00 0.000000e+00))
1.040000e-01	((2.384108e+02 -5.724366e+02 -5.895687e-02) (1.153622e-01 3.727894e-02 1.465063e-04) (0.000000e+00 0.000000e+00 0.000000e+00)) ((-3.051940e-01 -2.476629e-01 -1.092668e+02) (5.382593e-05 -1.807040e-04 1.807631e-02) (0.000000e+00 0.000000e+00 0.000000e+00))
1.050000e-01	((2.411253e+02 -5.799803e+02 -6.247835e-02) (1.166157e-01 3.767009e-02 1.346776e-04) (0.000000e+00 0.000000e+00 0.000000e+00)) ((-3.082791e-01 -2.376493e-01 -1.105816e+02) (5.204741e-05 -1.743611e-04 1.825115e-02) (0.000000e+00 0.000000e+00 0.000000e+00))
1.060000e-01	((2.435673e+02 -5.872128e+02 -6.547802e-02) (1.178633e-01 3.808609e-02 1.099951e-04) (0.000000e+00 0.000000e+00 0.000000e+00)) ((-3.369714e-01 -2.423763e-01 -1.117906e+02) (5.579545e-05 -1.703478e-04 1.843376e-02) (0.000000e+00 0.000000e+00 0.000000e+00))
1.070000e-01	((2.457417e+02 -5.940969e+02 -6.944623e-02) (1.191057e-01 3.850070e-02 8.710308e-05) (0.000000e+00 0.000000e+00 0.000000e+00)) ((-4.019897e-01 -2.687541e-01 -1.128888e+02) (5.507171e-05 -1.609225e-04 1.861564e-02) (0.000000e+00 0.000000e+00 0.000000e+00))
1.080000e-01	((2.475600e+02 -6.005061e+02 -7.289149e-02) (1.203247e-01 3.892152e-02 5.902819e-05) (0.000000e+00 0.000000e+00 0.000000e+00)) ((-4.872649e-01 -3.162047e-01 -1.138407e+02) (5.307380e-05 -1.484729e-04 1.879818e-02) (0.000000e+00 0.000000e+00 0.000000e+00))
1.090000e-01	((2.490813e+02 -6.064750e+02 -7.675844e-02) (1.215257e-01 3.935095e-02 4.064636e-05) (0.000000e+00 0.000000e+00 0.000000e+00)) ((-5.692778e-01 -3.616060e-01 -1.146655e+02) (5.175871e-05 -1.409794e-04 1.898403e-02) (0.000000e+00 0.000000e+00 0.000000e+00))
1.100000e-01	((2.504472e+02 -6.122297e+02 -7.884652e-02) (1.227010e-01 3.979237e-02 1.379127e-05) (0.000000e+00 0.000000e+00 0.000000e+00)) ((-6.389177e-01 -4.038481e-01 -1.154306e+02) (5.009175e-05 -1.292187e-04 1.917281e-02) (0.000000e+00 0.000000e+00 0.000000e+00))
1.110000e-01	((2.517876e+02 -6.179153e+02 -8.402729e-02) (1.238625e-01 4.025170e-02 -8.684397e-06) (0.000000e+00 0.000000e+00 0.000000e+00)) ((-6.970215e-01 -4.330637e-01 -1.161886e+02) (4.727334e-05 -1.174164e-04 1.936694e-02) (0.000000e+00 0.000000e+00 0.000000e+00))