# Forces     
# CofR       : (0.000000e+00 0.000000e+00 0.000000e+00)
# Time       forces(pressure viscous porous) moment(pressure viscous porous)
1.000000e-03	((1.081348e+00 -1.676977e+00 -9.217971e-05) (5.956270e-03 -6.989754e-05 4.962081e-07) (0.000000e+00 0.000000e+00 0.000000e+00)) ((1.022930e-04 2.774436e-05 -4.508875e-01) (-1.351934e-07 -1.156517e-06 1.156973e-04) (0.000000e+00 0.000000e+00 0.000000e+00))
2.000000e-03	((4.255387e+00 -6.760031e+00 -3.141888e-04) (6.136656e-03 1.062275e-03 1.602398e-06) (0.000000e+00 0.000000e+00 0.000000e+00)) ((-2.970237e-04 -1.831782e-04 -1.714767e+00) (-7.925897e-07 -2.429447e-06 5.537086e-04) (0.000000e+00 0.000000e+00 0.000000e+00))
3.000000e-03	((6.329789e+00 -1.053146e+01 -2.714854e-04) (7.150659e-03 2.096828e-03 -3.187315e-06) (0.000000e+00 0.000000e+00 0.000000e+00)) ((-7.523627e-04 -6.097580e-04 -2.538497e+00) (-3.760044e-06 -3.092441e-07 9.659925e-04) (0.000000e+00 0.000000e+00 0.000000e+00))
4.000000e-03	((6.713674e+00 -1.179592e+01 -2.521130e-04) (8.949062e-03 3.168685e-03 -5.406342e-06) (0.000000e+00 0.000000e+00 0.000000e+00)) ((2.579122e-03 2.017869e-04 -2.693597e+00) (-3.679439e-06 -1.870346e-06 1.412077e-03) (0.000000e+00 0.000000e+00 0.000000e+00))
5.000000e-03	((6.397385e+00 -1.212786e+01 -1.449910e-03) (1.043999e-02 3.905056e-03 -7.518825e-06) (0.000000e+00 0.000000e+00 0.000000e+00)) ((1.289983e-02 3.685515e-03 -2.586825e+00) (-7.178611e-07 1.280818e-06 1.767631e-03) (0.000000e+00 0.000000e+00 0.000000e+00))
6.000000e-03	((6.193119e+00 -1.278568e+01 -1.743106e-03) (1.162046e-02 4.401203e-03 -1.574162e-05) (0.000000e+00 0.000000e+00 0.000000e+00)) ((2.126142e-02 5.883112e-03 -2.555435e+00) (1.396847e-06 5.831080e-06 2.007191e-03) (0.000000e+00 0.000000e+00 0.000000e+00))
7.000000e-03	((6.301012e+00 -1.400179e+01 -1.620214e-03) (1.253101e-02 4.728015e-03 -1.776205e-05) (0.000000e+00 0.000000e+00 0.000000e+00)) ((2.335422e-02 6.580977e-03 -2.679325e+00) (-3.026905e-07 8.554082e-06 2.173523e-03) (0.000000e+00 0.000000e+00 0.000000e+00))
8.000000e-03	((7.118771e+00 -1.636349e+01 -8.450678e-04) (1.328987e-02 4.964125e-03 -2.041983e-05) (0.000000e+00 0.000000e+00 0.000000e+00)) ((2.146912e-02 4.840785e-03 -3.100406e+00) (-7.901372e-07 1.008738e-05 2.293901e-03) (0.000000e+00 0.000000e+00 0.000000e+00))
9.000000e-03	((8.396925e+00 -1.944421e+01 4.044036e-04) (1.398116e-02 5.133283e-03 -1.543368e-05) (0.000000e+00 0.000000e+00 0.000000e+00)) ((1.673978e-02 1.926587e-03 -3.705219e+00) (-5.048746e-07 9.018684e-06 2.393610e-03) (0.000000e+00 0.000000e+00 0.000000e+00))
1.000000e-02	((9.814995e+00 -2.271685e+01 1.189176e-03) (1.464351e-02 5.261620e-03 -1.687949e-05) (0.000000e+00 0.000000e+00 0.000000e+00)) ((1.262083e-02 1.372322e-03 -4.358228e+00) (-1.003690e-06 8.246319e-06 2.485100e-03) (0.000000e+00 0.000000e+00 0.000000e+00))
1.100000e-02	((1.107111e+01 -2.571204e+01 1.407542e-03) (1.530867e-02 5.357424e-03 -1.904665e-05) (0.000000e+00 0.000000e+00 0.000000e+00)) ((1.319755e-02 3.087448e-03 -4.935952e+00) (-2.270629e-06 1.124723e-05 2.573994e-03) (0.000000e+00 0.000000e+00 0.000000e+00))
1.200000e-02	((1.222879e+01 -2.854235e+01 7.641310e-04) (1.595854e-02 5.441602e-03 -2.252538e-05) (0.000000e+00 0.000000e+00 0.000000e+00)) ((1.532174e-02 6.561050e-03 -5.466187e+00) (-4.470096e-06 1.159790e-05 2.659719e-03) (0.000000e+00 0.000000e+00 0.000000e+00))
1.300000e-02	((1.323497e+01 -3.114759e+01 -2.301127e-05) (1.660899e-02 5.515957e-03 -2.131490e-05) (0.000000e+00 0.000000e+00 0.000000e+00)) ((2.288107e-02 1.232966e-02 -5.931509e+00) (-3.046609e-06 1.228758e-05 2.749619e-03) (0.000000e+00 0.000000e+00 0.000000e+00))
1.400000e-02	((1.424077e+01 -3.379417e+01 -9.462470e-04) (1.725540e-02 5.625121e-03 -2.651855e-05) (0.000000e+00 0.000000e+00 0.000000e+00)) ((2.241431e-02 1.565394e-02 -6.399202e+00) (-3.470334e-06 1.258917e-05 2.846358e-03) (0.000000e+00 0.000000e+00 0.000000e+00))
1.500000e-02	((1.548901e+01 -3.689089e+01 -1.830208e-04) (1.792048e-02 5.738241e-03 -3.116012e-05) (0.000000e+00 0.000000e+00 0.000000e+00)) ((1.813293e-02 1.534681e-02 -6.968275e+00) (-3.280414e-06 1.503198e-05 2.944863e-03) (0.000000e+00 0.000000e+00 0.000000e+00))
1.600000e-02	((1.712418e+01 -4.077997e+01 4.213298e-04) (1.860867e-02 5.866766e-03 -3.316206e-05) (0.000000e+00 0.000000e+00 0.000000e+00)) ((1.190930e-02 1.371543e-02 -7.704301e+00) (-3.463633e-06 1.590562e-05 3.046870e-03) (0.000000e+00 0.000000e+00 0.000000e+00))
1.700000e-02	((1.908126e+01 -4.538436e+01 1.795793e-03) (1.934051e-02 5.997527e-03 -3.185287e-05) (0.000000e+00 0.000000e+00 0.000000e+00)) ((8.242172e-03 1.077487e-02 -8.585976e+00) (-4.243843e-06 1.714207e-05 3.149984e-03) (0.000000e+00 0.000000e+00 0.000000e+00))
1.800000e-02	((2.124076e+01 -5.050184e+01 2.669047e-03) (2.010743e-02 6.128924e-03 -2.995053e-05) (0.000000e+00 0.000000e+00 0.000000e+00)) ((1.002994e-02 9.004183e-03 -9.562602e+00) (-4.683360e-06 1.681658e-05 3.254762e-03) (0.000000e+00 0.000000e+00 0.000000e+00))
1.900000e-02	((2.337733e+01 -5.575607e+01 3.485571e-03) (2.088490e-02 6.249486e-03 -2.716657e-05) (0.000000e+00 0.000000e+00 0.000000e+00)) ((1.115448e-02 7.092252e-03 -1.054257e+01) (-4.604507e-06 1.639307e-05 3.357290e-03) (0.000000e+00 0.000000e+00 0.000000e+00))
2.000000e-02	((2.543593e+01 -6.102973e+01 2.848781e-03) (2.164662e-02 6.360534e-03 -2.676882e-05) (0.000000e+00 0.000000e+00 0.000000e+00)) ((1.503530e-02 7.413248e-03 -1.150156e+01) (-5.011813e-06 1.585322e-05 3.457304e-03) (0.000000e+00 0.000000e+00 0.000000e+00))
2.100000e-02	((2.736492e+01 -6.620613e+01 1.677605e-03) (2.237976e-02 6.465682e-03 -2.878958e-05) (0.000000e+00 0.000000e+00 0.000000e+00)) ((2.331378e-02 8.796406e-03 -1.241677e+01) (-4.877694e-06 1.495478e-05 3.556179e-03) (0.000000e+00 0.000000e+00 0.000000e+00))
2.200000e-02	((2.920373e+01 -7.130337e+01 -1.177570e-04) (2.307096e-02 6.553763e-03 -3.151279e-05) (0.000000e+00 0.000000e+00 0.000000e+00)) ((2.982973e-02 1.113223e-02 -1.330120e+01) (-4.947269e-06 1.379212e-05 3.649649e-03) (0.000000e+00 0.000000e+00 0.000000e+00))
2.300000e-02	((3.104911e+01 -7.646321e+01 -1.484280e-03) (2.372566e-02 6.637946e-03 -3.426944e-05) (0.000000e+00 0.000000e+00 0.000000e+00)) ((3.996924e-02 1.409862e-02 -1.419577e+01) (-4.835476e-06 1.348862e-05 3.741470e-03) (0.000000e+00 0.000000e+00 0.000000e+00))
2.400000e-02	((3.303000e+01 -8.186682e+01 -2.072502e-03) (2.434480e-02 6.712969e-03 -3.699254e-05) (0.000000e+00 0.000000e+00 0.000000e+00)) ((6.368494e-02 2.147657e-02 -1.515013e+01) (-5.196914e-06 1.273979e-05 3.830386e-03) (0.000000e+00 0.000000e+00 0.000000e+00))
2.500000e-02	((3.524852e+01 -8.772912e+01 -1.470377e-03) (2.494259e-02 6.787604e-03 -3.708191e-05) (0.000000e+00 0.000000e+00 0.000000e+00)) ((8.548770e-02 2.762539e-02 -1.620726e+01) (-4.166067e-06 1.153432e-05 3.919291e-03) (0.000000e+00 0.000000e+00 0.000000e+00))
2.600000e-02	((3.775005e+01 -9.414946e+01 -1.297707e-03) (2.553630e-02 6.867065e-03 -3.652631e-05) (0.000000e+00 0.000000e+00 0.000000e+00)) ((9.250133e-02 2.993384e-02 -1.738576e+01) (-3.829799e-06 8.879488e-06 4.011234e-03) (0.000000e+00 0.000000e+00 0.000000e+00))
2.700000e-02	((4.052598e+01 -1.011690e+02 -5.935884e-04) (2.612111e-02 6.935470e-03 -4.060518e-05) (0.000000e+00 0.000000e+00 0.000000e+00)) ((8.779084e-02 2.768758e-02 -1.868310e+01) (-2.812094e-06 8.674812e-06 4.100467e-03) (0.000000e+00 0.000000e+00 0.000000e+00))
2.800000e-02	((4.351378e+01 -1.086742e+02 9.165059e-04) (2.667665e-02 6.979535e-03 -4.247758e-05) (0.000000e+00 0.000000e+00 0.000000e+00)) ((8.516657e-02 2.528505e-02 -2.007175e+01) (-2.729460e-06 8.046710e-06 4.182827e-03) (0.000000e+00 0.000000e+00 0.000000e+00))
2.900000e-02	((4.658353e+01 -1.164366e+02 1.507368e-03) (2.721569e-02 7.006414e-03 -4.537416e-05) (0.000000e+00 0.000000e+00 0.000000e+00)) ((8.114005e-02 2.278592e-02 -2.149633e+01) (-2.472557e-06 6.999548e-06 4.261203e-03) (0.000000e+00 0.000000e+00 0.000000e+00))
3.000000e-02	((4.968295e+01 -1.243193e+02 1.978123e-03) (2.768430e-02 6.992880e-03 -4.741429e-05) (0.000000e+00 0.000000e+00 0.000000e+00)) ((7.400745e-02 1.890070e-02 -2.293246e+01) (-3.095563e-06 6.777442e-06 4.326632e-03) (0.000000e+00 0.000000e+00 0.000000e+00))
3.100000e-02	((5.277931e+01 -1.322593e+02 1.062999e-03) (2.805554e-02 6.949718e-03 -5.109074e-05) (0.000000e+00 0.000000e+00 0.000000e+00)) ((5.605335e-02 1.369470e-02 -2.436610e+01) (-3.752026e-06 6.886133e-06 4.382088e-03) (0.000000e+00 0.000000e+00 0.000000e+00))
3.200000e-02	((5.591562e+01 -1.402715e+02 -4.800845e-04) (2.840434e-02 6.914859e-03 -5.834107e-05) (0.000000e+00 0.000000e+00 0.000000e+00)) ((4.081690e-02 1.043861e-02 -2.581400e+01) (-4.772099e-06 8.837405e-06 4.438644e-03) (0.000000e+00 0.000000e+00 0.000000e+00))
3.300000e-02	((5.913191e+01 -1.484063e+02 -3.124949e-03) (2.881148e-02 6.906236e-03 -7.295472e-05) (0.000000e+00 0.000000e+00 0.000000e+00)) ((2.566559e-02 9.183854e-03 -2.729256e+01) (-5.990024e-06 1.486830e-05 4.504934e-03) (0.000000e+00 0.000000e+00 0.000000e+00))
3.400000e-02	((6.244970e+01 -1.566869e+02 -4.767953e-03) (2.920127e-02 6.904685e-03 -7.509554e-05) (0.000000e+00 0.000000e+00 0.000000e+00)) ((2.798440e-02 1.353159e-02 -2.881299e+01) (-6.715442e-06 1.601820e-05 4.571311e-03) (0.000000e+00 0.000000e+00 0.000000e+00))
3.500000e-02	((6.590167e+01 -1.652196e+02 -5.789362e-03) (2.969571e-02 6.952487e-03 -8.058466e-05) (0.000000e+00 0.000000e+00 0.000000e+00)) ((3.305844e-02 1.720303e-02 -3.038853e+01) (-6.922259e-06 1.493123e-05 4.655026e-03) (0.000000e+00 0.000000e+00 0.000000e+00))
3.600000e-02	((6.956642e+01 -1.741592e+02 -5.666041e-03) (3.025658e-02 7.027226e-03 -8.618462e-05) (0.000000e+00 0.000000e+00 0.000000e+00)) ((3.638077e-02 1.829027e-02 -3.205503e+01) (-7.988768e-06 1.456808e-05 4.747538e-03) (0.000000e+00 0.000000e+00 0.000000e+00))
3.700000e-02	((7.337206e+01 -1.833522e+02 -4.778654e-03) (3.081077e-02 7.114832e-03 -9.569101e-05) (0.000000e+00 0.000000e+00 0.000000e+00)) ((2.529250e-02 1.259060e-02 -3.377683e+01) (-7.613840e-06 1.323492e-05 4.841950e-03) (0.000000e+00 0.000000e+00 0.000000e+00))
3.800000e-02	((7.731864e+01 -1.927647e+02 -3.510494e-03) (3.138973e-02 7.220284e-03 -9.497144e-05) (0.000000e+00 0.000000e+00 0.000000e+00)) ((5.740949e-03 3.152637e-03 -3.555585e+01) (-7.544764e-06 7.249271e-06 4.940134e-03) (0.000000e+00 0.000000e+00 0.000000e+00))
3.900000e-02	((8.142559e+01 -2.025016e+02 -1.208401e-03) (3.200440e-02 7.341869e-03 -9.011962e-05) (0.000000e+00 0.000000e+00 0.000000e+00)) ((-1.117080e-02 -6.129140e-03 -3.740284e+01) (-9.198105e-06 -2.413433e-06 5.043699e-03) (0.000000e+00 0.000000e+00 0.000000e+00))
4.000000e-02	((8.566397e+01 -2.124646e+02 6.287140e-04) (3.269752e-02 7.472878e-03 -8.825400e-05) (0.000000e+00 0.000000e+00 0.000000e+00)) ((-3.093609e-02 -1.597674e-02 -3.930549e+01) (-1.037233e-05 -8.242251e-06 5.155494e-03) (0.000000e+00 0.000000e+00 0.000000e+00))
4.100000e-02	((9.002011e+01 -2.226537e+02 2.078036e-03) (3.344233e-02 7.614489e-03 -9.061332e-05) (0.000000e+00 0.000000e+00 0.000000e+00)) ((-2.647536e-02 -1.783125e-02 -4.125888e+01) (-1.002593e-05 -1.196650e-05 5.272745e-03) (0.000000e+00 0.000000e+00 0.000000e+00))
4.200000e-02	((9.442539e+01 -2.329125e+02 3.079327e-03) (3.422938e-02 7.778994e-03 -9.342011e-05) (0.000000e+00 0.000000e+00 0.000000e+00)) ((-2.275235e-02 -2.016069e-02 -4.323517e+01) (-9.138425e-06 -1.434246e-05 5.396294e-03) (0.000000e+00 0.000000e+00 0.000000e+00))
4.300000e-02	((9.884682e+01 -2.431885e+02 3.734847e-03) (3.505588e-02 7.967141e-03 -9.308905e-05) (0.000000e+00 0.000000e+00 0.000000e+00)) ((-1.632341e-02 -2.263607e-02 -4.521965e+01) (-8.183159e-06 -1.699193e-05 5.526539e-03) (0.000000e+00 0.000000e+00 0.000000e+00))
4.400000e-02	((1.033630e+02 -2.535856e+02 3.784054e-03) (3.591277e-02 8.180532e-03 -9.358967e-05) (0.000000e+00 0.000000e+00 0.000000e+00)) ((-9.132526e-03 -2.461034e-02 -4.724802e+01) (-6.655236e-06 -1.957927e-05 5.662647e-03) (0.000000e+00 0.000000e+00 0.000000e+00))
4.500000e-02	((1.078670e+02 -2.638001e+02 5.591125e-03) (3.680736e-02 8.411124e-03 -9.261652e-05) (0.000000e+00 0.000000e+00 0.000000e+00)) ((1.440634e-04 -2.906698e-02 -4.926588e+01) (-4.642194e-06 -2.381269e-05 5.804758e-03) (0.000000e+00 0.000000e+00 0.000000e+00))
4.600000e-02	((1.124258e+02 -2.739555e+02 6.859879e-03) (3.773952e-02 8.661369e-03 -8.410472e-05) (0.000000e+00 0.000000e+00 0.000000e+00)) ((-1.570877e-03 -3.588000e-02 -5.130863e+01) (-2.744299e-06 -3.043498e-05 5.952967e-03) (0.000000e+00 0.000000e+00 0.000000e+00))
4.700000e-02	((1.170492e+02 -2.840648e+02 8.567209e-03) (3.870006e-02 8.929378e-03 -7.744259e-05) (0.000000e+00 0.000000e+00 0.000000e+00)) ((1.582191e-02 -3.559776e-02 -5.337806e+01) (-7.156485e-07 -3.653734e-05 6.105759e-03) (0.000000e+00 0.000000e+00 0.000000e+00))
4.800000e-02	((1.216486e+02 -2.939640e+02 9.984699e-03) (3.970310e-02 9.215846e-03 -6.908566e-05) (0.000000e+00 0.000000e+00 0.000000e+00)) ((1.613041e-02 -3.927077e-02 -5.543464e+01) (2.055251e-06 -4.387650e-05 6.264218e-03) (0.000000e+00 0.000000e+00 0.000000e+00))
4.900000e-02	((1.263095e+02 -3.038780e+02 1.182362e-02) (4.073711e-02 9.521509e-03 -6.795186e-05) (0.000000e+00 0.000000e+00 0.000000e+00)) ((9.674143e-03 -4.664603e-02 -5.751987e+01) (4.260381e-06 -4.908238e-05 6.427426e-03) (0.000000e+00 0.000000e+00 0.000000e+00))
5.000000e-02	((1.310094e+02 -3.137505e+02 1.450249e-02) (4.180545e-02 9.848579e-03 -6.340021e-05) (0.000000e+00 0.000000e+00 0.000000e+00)) ((1.624705e-02 -4.841351e-02 -5.962411e+01) (6.177108e-06 -5.458578e-05 6.597394e-03) (0.000000e+00 0.000000e+00 0.000000e+00))
5.100000e-02	((1.357003e+02 -3.235004e+02 1.708584e-02) (4.289731e-02 1.019803e-02 -6.089391e-05) (0.000000e+00 0.000000e+00 0.000000e+00)) ((2.399554e-02 -4.643970e-02 -6.172455e+01) (7.747298e-06 -6.024305e-05 6.772947e-03) (0.000000e+00 0.000000e+00 0.000000e+00))
5.200000e-02	((1.402693e+02 -3.329118e+02 1.897090e-02) (4.399976e-02 1.056118e-02 -5.643066e-05) (0.000000e+00 0.000000e+00 0.000000e+00)) ((2.208675e-02 -4.260844e-02 -6.376952e+01) (8.875227e-06 -6.488479e-05 6.952195e-03) (0.000000e+00 0.000000e+00 0.000000e+00))
5.300000e-02	((1.447029e+02 -3.419491e+02 2.089222e-02) (4.510882e-02 1.094734e-02 -4.865121e-05) (0.000000e+00 0.000000e+00 0.000000e+00)) ((2.236433e-02 -3.693353e-02 -6.575347e+01) (1.038875e-05 -7.109932e-05 7.136037e-03) (0.000000e+00 0.000000e+00 0.000000e+00))
5.400000e-02	((1.489099e+02 -3.504153e+02 2.274186e-02) (4.621560e-02 1.134514e-02 -4.806820e-05) (0.000000e+00 0.000000e+00 0.000000e+00)) ((1.420655e-02 -3.467596e-02 -6.763478e+01) (1.192034e-05 -7.419013e-05 7.322663e-03) (0.000000e+00 0.000000e+00 0.000000e+00))
5.500000e-02	((1.529060e+02 -3.583017e+02 2.426121e-02) (4.731548e-02 1.176324e-02 -5.029571e-05) (0.000000e+00 0.000000e+00 0.000000e+00)) ((7.016240e-03 -3.277579e-02 -6.941869e+01) (1.291899e-05 -7.506744e-05 7.512481e-03) (0.000000e+00 0.000000e+00 0.000000e+00))
5.600000e-02	((1.566837e+02 -3.656023e+02 2.670798e-02) (4.841234e-02 1.219177e-02 -4.849734e-05) (0.000000e+00 0.000000e+00 0.000000e+00)) ((7.073235e-03 -2.936054e-02 -7.110260e+01) (1.387527e-05 -7.665794e-05 7.704331e-03) (0.000000e+00 0.000000e+00 0.000000e+00))
5.700000e-02	((1.602423e+02 -3.723309e+02 2.955719e-02) (4.950657e-02 1.264489e-02 -4.521081e-05) (0.000000e+00 0.000000e+00 0.000000e+00)) ((2.121874e-02 -2.258501e-02 -7.268631e+01) (1.460202e-05 -7.800204e-05 7.900613e-03) (0.000000e+00 0.000000e+00 0.000000e+00))
5.800000e-02	((1.636710e+02 -3.786814e+02 3.115194e-02) (5.059659e-02 1.309806e-02 -3.941738e-05) (0.000000e+00 0.000000e+00 0.000000e+00)) ((3.011231e-02 -1.821073e-02 -7.421046e+01) (1.535864e-05 -7.956732e-05 8.097359e-03) (0.000000e+00 0.000000e+00 0.000000e+00))
5.900000e-02	((1.669871e+02 -3.847661e+02 3.342574e-02) (5.168299e-02 1.357048e-02 -3.571017e-05) (0.000000e+00 0.000000e+00 0.000000e+00)) ((4.498618e-02 -1.312704e-02 -7.568666e+01) (1.571439e-05 -8.094181e-05 8.298336e-03) (0.000000e+00 0.000000e+00 0.000000e+00))
6.000000e-02	((1.702384e+02 -3.907620e+02 3.403970e-02) (5.276193e-02 1.403754e-02 -2.699959e-05) (0.000000e+00 0.000000e+00 0.000000e+00)) ((5.339654e-02 -7.860432e-03 -7.714122e+01) (1.567700e-05 -8.383232e-05 8.498417e-03) (0.000000e+00 0.000000e+00 0.000000e+00))
6.100000e-02	((1.734050e+02 -3.966667e+02 3.596018e-02) (5.382387e-02 1.450209e-02 -2.268947e-05) (0.000000e+00 0.000000e+00 0.000000e+00)) ((5.580270e-02 -6.978349e-03 -7.856685e+01) (1.411172e-05 -8.514909e-05 8.695931e-03) (0.000000e+00 0.000000e+00 0.000000e+00))
6.200000e-02	((1.765000e+02 -4.025288e+02 3.733627e-02) (5.486489e-02 1.494593e-02 -1.530692e-05) (0.000000e+00 0.000000e+00 0.000000e+00)) ((4.562571e-02 -1.279611e-02 -7.997100e+01) (1.353094e-05 -8.840317e-05 8.888146e-03) (0.000000e+00 0.000000e+00 0.000000e+00))
6.300000e-02	((1.794719e+02 -4.082697e+02 3.891311e-02) (5.588423e-02 1.538123e-02 -5.817241e-06) (0.000000e+00 0.000000e+00 0.000000e+00)) ((2.608090e-02 -2.154026e-02 -8.133042e+01) (1.155968e-05 -9.347753e-05 9.075853e-03) (0.000000e+00 0.000000e+00 0.000000e+00))
6.400000e-02	((1.823532e+02 -4.139478e+02 4.051923e-02) (5.688195e-02 1.579882e-02 7.029462e-06) (0.000000e+00 0.000000e+00 0.000000e+00)) ((-2.768509e-03 -3.453889e-02 -8.265866e+01) (1.109308e-05 -9.695594e-05 9.257997e-03) (0.000000e+00 0.000000e+00 0.000000e+00))
6.500000e-02	((1.851091e+02 -4.195072e+02 4.231296e-02) (5.784170e-02 1.619819e-02 2.158453e-05) (0.000000e+00 0.000000e+00 0.000000e+00)) ((-3.343796e-02 -4.708842e-02 -8.393880e+01) (8.875031e-06 -1.016145e-04 9.432949e-03) (0.000000e+00 0.000000e+00 0.000000e+00))
6.600000e-02	((1.877665e+02 -4.249921e+02 4.336198e-02) (5.876933e-02 1.657640e-02 3.669467e-05) (0.000000e+00 0.000000e+00 0.000000e+00)) ((-6.476019e-02 -5.831184e-02 -8.518134e+01) (8.767663e-06 -1.062422e-04 9.600877e-03) (0.000000e+00 0.000000e+00 0.000000e+00))
6.700000e-02	((1.903203e+02 -4.304108e+02 4.392463e-02) (5.966672e-02 1.693124e-02 4.857310e-05) (0.000000e+00 0.000000e+00 0.000000e+00)) ((-9.688035e-02 -6.769581e-02 -8.638389e+01) (8.797231e-06 -1.097903e-04 9.760950e-03) (0.000000e+00 0.000000e+00 0.000000e+00))
6.800000e-02	((1.927744e+02 -4.357668e+02 4.397972e-02) (6.053523e-02 1.726615e-02 6.353846e-05) (0.000000e+00 0.000000e+00 0.000000e+00)) ((-1.297265e-01 -7.572365e-02 -8.754648e+01) (9.475553e-06 -1.150085e-04 9.914673e-03) (0.000000e+00 0.000000e+00 0.000000e+00))
6.900000e-02	((1.951278e+02 -4.410527e+02 4.416065e-02) (6.136619e-02 1.758505e-02 7.313006e-05) (0.000000e+00 0.000000e+00 0.000000e+00)) ((-1.565529e-01 -7.955751e-02 -8.866708e+01) (1.088218e-05 -1.198812e-04 1.006254e-02) (0.000000e+00 0.000000e+00 0.000000e+00))
7.000000e-02	((1.973923e+02 -4.462717e+02 4.486693e-02) (6.216352e-02 1.789607e-02 7.745329e-05) (0.000000e+00 0.000000e+00 0.000000e+00)) ((-1.869966e-01 -8.380725e-02 -8.975036e+01) (9.648245e-06 -1.220126e-04 1.020707e-02) (0.000000e+00 0.000000e+00 0.000000e+00))
7.100000e-02	((1.995354e+02 -4.513555e+02 4.596551e-02) (6.292580e-02 1.820303e-02 9.111358e-05) (0.000000e+00 0.000000e+00 0.000000e+00)) ((-2.183537e-01 -8.715148e-02 -9.078163e+01) (1.117289e-05 -1.263239e-04 1.034828e-02) (0.000000e+00 0.000000e+00 0.000000e+00))
7.200000e-02	((2.015836e+02 -4.563615e+02 4.751585e-02) (6.364541e-02 1.849319e-02 1.070942e-04) (0.000000e+00 0.000000e+00 0.000000e+00)) ((-2.671965e-01 -9.941994e-02 -9.177454e+01) (9.823897e-06 -1.310579e-04 1.048333e-02) (0.000000e+00 0.000000e+00 0.000000e+00))
7.300000e-02	((2.035910e+02 -4.613798e+02 4.732782e-02) (6.432047e-02 1.878241e-02 1.201286e-04) (0.000000e+00 0.000000e+00 0.000000e+00)) ((-3.187621e-01 -1.116086e-01 -9.275348e+01) (1.134616e-05 -1.365607e-04 1.061452e-02) (0.000000e+00 0.000000e+00 0.000000e+00))
7.400000e-02	((2.055983e+02 -4.664864e+02 4.763317e-02) (6.495703e-02 1.905368e-02 1.209087e-04) (0.000000e+00 0.000000e+00 0.000000e+00)) ((-3.591634e-01 -1.168965e-01 -9.373731e+01) (1.207408e-05 -1.385380e-04 1.073931e-02) (0.000000e+00 0.000000e+00 0.000000e+00))
7.500000e-02	((2.075971e+02 -4.716502e+02 4.682095e-02) (6.555334e-02 1.929925e-02 1.286115e-04) (0.000000e+00 0.000000e+00 0.000000e+00)) ((-3.828253e-01 -1.133245e-01 -9.472116e+01) (1.279216e-05 -1.432548e-04 1.085468e-02) (0.000000e+00 0.000000e+00 0.000000e+00))
7.600000e-02	((2.095932e+02 -4.768627e+02 4.666275e-02) (6.609462e-02 1.952090e-02 1.373866e-04) (0.000000e+00 0.000000e+00 0.000000e+00)) ((-4.034462e-01 -1.091308e-01 -9.570663e+01) (1.186993e-05 -1.442363e-04 1.096074e-02) (0.000000e+00 0.000000e+00 0.000000e+00))
7.700000e-02	((2.115471e+02 -4.820535e+02 4.723150e-02) (6.659472e-02 1.972823e-02 1.563042e-04) (0.000000e+00 0.000000e+00 0.000000e+00)) ((-4.206461e-01 -1.045051e-01 -9.667626e+01) (9.715749e-06 -1.504720e-04 1.105949e-02) (0.000000e+00 0.000000e+00 0.000000e+00))
7.800000e-02	((2.135375e+02 -4.873409e+02 4.955625e-02) (6.704273e-02 1.991820e-02 1.706727e-04) (0.000000e+00 0.000000e+00 0.000000e+00)) ((-4.450321e-01 -1.050372e-01 -9.766373e+01) (1.019494e-05 -1.559082e-04 1.115042e-02) (0.000000e+00 0.000000e+00 0.000000e+00))
7.900000e-02	((2.155808e+02 -4.927564e+02 4.943403e-02) (6.744873e-02 2.008950e-02 1.864131e-04) (0.000000e+00 0.000000e+00 0.000000e+00)) ((-4.691765e-01 -1.077908e-01 -9.867588e+01) (9.637382e-06 -1.625032e-04 1.123259e-02) (0.000000e+00 0.000000e+00 0.000000e+00))
8.000000e-02	((2.176751e+02 -4.982743e+02 4.538440e-02) (6.782382e-02 2.024463e-02 1.931176e-04) (0.000000e+00 0.000000e+00 0.000000e+00)) ((-5.067970e-01 -1.188563e-01 -9.971092e+01) (9.988856e-06 -1.674046e-04 1.130892e-02) (0.000000e+00 0.000000e+00 0.000000e+00))
8.100000e-02	((2.198285e+02 -5.038521e+02 3.958965e-02) (6.815722e-02 2.037462e-02 2.030858e-04) (0.000000e+00 0.000000e+00 0.000000e+00)) ((-5.438423e-01 -1.328032e-01 -1.007690e+02) (9.416447e-06 -1.751002e-04 1.137564e-02) (0.000000e+00 0.000000e+00 0.000000e+00))
8.200000e-02	((2.220704e+02 -5.094943e+02 3.626360e-02) (6.845315e-02 2.047536e-02 2.169541e-04) (0.000000e+00 0.000000e+00 0.000000e+00)) ((-5.754636e-01 -1.471146e-01 -1.018592e+02) (8.589647e-06 -1.813764e-04 1.143283e-02) (0.000000e+00 0.000000e+00 0.000000e+00))
8.300000e-02	((2.244909e+02 -5.153899e+02 3.330068e-02) (6.873639e-02 2.055513e-02 2.284745e-04) (0.000000e+00 0.000000e+00 0.000000e+00)) ((-6.002686e-01 -1.633882e-01 -1.030266e+02) (7.295916e-06 -1.858307e-04 1.148360e-02) (0.000000e+00 0.000000e+00 0.000000e+00))
8.400000e-02	((2.270746e+02 -5.215262e+02 3.166867e-02) (6.899486e-02 2.059896e-02 2.453599e-04) (0.000000e+00 0.000000e+00 0.000000e+00)) ((-6.209569e-01 -1.778567e-01 -1.042658e+02) (3.933890e-06 -1.908237e-04 1.152431e-02) (0.000000e+00 0.000000e+00 0.000000e+00))
8.500000e-02	((2.298035e+02 -5.278982e+02 2.938169e-02) (6.923687e-02 2.061757e-02 2.509751e-04) (0.000000e+00 0.000000e+00 0.000000e+00)) ((-6.347808e-01 -1.923766e-01 -1.055712e+02) (3.217417e-06 -1.888366e-04 1.155890e-02) (0.000000e+00 0.000000e+00 0.000000e+00))
8.600000e-02	((2.326135e+02 -5.344007e+02 2.858349e-02) (6.946326e-02 2.061693e-02 2.613785e-04) (0.000000e+00 0.000000e+00 0.000000e+00)) ((-6.261468e-01 -1.941167e-01 -1.069127e+02) (4.427597e-06 -1.881506e-04 1.158546e-02) (0.000000e+00 0.000000e+00 0.000000e+00))
8.700000e-02	((2.353675e+02 -5.407884e+02 2.327424e-02) (6.967000e-02 2.061479e-02 2.642624e-04) (0.000000e+00 0.000000e+00 0.000000e+00)) ((-6.257697e-01 -2.020218e-01 -1.082279e+02) (7.358477e-06 -1.907231e-04 1.160702e-02) (0.000000e+00 0.000000e+00 0.000000e+00))
8.800000e-02	((2.380295e+02 -5.470040e+02 1.560246e-02) (6.986082e-02 2.059322e-02 2.601601e-04) (0.000000e+00 0.000000e+00 0.000000e+00)) ((-6.417814e-01 -2.191921e-01 -1.094970e+02) (1.226122e-05 -1.952330e-04 1.162015e-02) (0.000000e+00 0.000000e+00 0.000000e+00))
8.900000e-02	((2.405431e+02 -5.529506e+02 6.550861e-03) (7.004782e-02 2.054880e-02 2.491946e-04) (0.000000e+00 0.000000e+00 0.000000e+00)) ((-6.652384e-01 -2.371929e-01 -1.106942e+02) (1.574318e-05 -1.955957e-04 1.162752e-02) (0.000000e+00 0.000000e+00 0.000000e+00))
9.000000e-02	((2.429036e+02 -5.585933e+02 1.005858e-03) (7.023820e-02 2.049171e-02 2.331818e-04) (0.000000e+00 0.000000e+00 0.000000e+00)) ((-6.836770e-01 -2.472396e-01 -1.118144e+02) (2.092529e-05 -1.967706e-04 1.163205e-02) (0.000000e+00 0.000000e+00 0.000000e+00))
9.100000e-02	((2.450963e+02 -5.638573e+02 -1.331137e-03) (7.041014e-02 2.041982e-02 2.173286e-04) (0.000000e+00 0.000000e+00 0.000000e+00)) ((-6.830546e-01 -2.427516e-01 -1.128474e+02) (2.452307e-05 -1.966187e-04 1.163171e-02) (0.000000e+00 0.000000e+00 0.000000e+00))
9.200000e-02	((2.471886e+02 -5.688581e+02 -3.843639e-03) (7.057243e-02 2.035006e-02 1.939450e-04) (0.000000e+00 0.000000e+00 0.000000e+00)) ((-6.680743e-01 -2.329467e-01 -1.138243e+02) (2.909077e-05 -1.926150e-04 1.163200e-02) (0.000000e+00 0.000000e+00 0.000000e+00))
9.300000e-02	((2.492314e+02 -5.736951e+02 -5.841045e-03) (7.072368e-02 2.029611e-02 1.797462e-04) (0.000000e+00 0.000000e+00 0.000000e+00)) ((-6.530175e-01 -2.330542e-01 -1.147690e+02) (3.569546e-05 -1.930080e-04 1.163642e-02) (0.000000e+00 0.000000e+00 0.000000e+00))
9.400000e-02	((2.510263e+02 -5.780387e+02 -9.039921e-03) (7.087125e-02 2.024863e-02 1.571441e-04) (0.000000e+00 0.000000e+00 0.000000e+00)) ((-6.551051e-01 -2.457072e-01 -1.155944e+02) (4.295411e-05 -1.929856e-04 1.164312e-02) (0.000000e+00 0.000000e+00 0.000000e+00))
9.500000e-02	((2.524284e+02 -5.817231e+02 -1.326064e-02) (7.101946e-02 2.022859e-02 1.334629e-04) (0.000000e+00 0.000000e+00 0.000000e+00)) ((-6.713434e-01 -2.683871e-01 -1.162457e+02) (4.902619e-05 -1.942831e-04 1.165824e-02) (0.000000e+00 0.000000e+00 0.000000e+00))
9.600000e-02	((2.534333e+02 -5.847111e+02 -1.545148e-02) (7.115094e-02 2.021839e-02 1.087987e-04) (0.000000e+00 0.000000e+00 0.000000e+00)) ((-6.950730e-01 -2.989811e-01 -1.167216e+02) (5.439914e-05 -1.975109e-04 1.167699e-02) (0.000000e+00 0.000000e+00 0.000000e+00))
9.700000e-02	((2.540511e+02 -5.869988e+02 -1.654221e-02) (7.127536e-02 2.023018e-02 7.963329e-05) (0.000000e+00 0.000000e+00 0.000000e+00)) ((-7.062132e-01 -3.273475e-01 -1.170298e+02) (5.841168e-05 -1.987451e-04 1.170255e-02) (0.000000e+00 0.000000e+00 0.000000e+00))
9.800000e-02	((2.544617e+02 -5.887243e+02 -1.535291e-02) (7.138340e-02 2.026181e-02 5.624786e-05) (0.000000e+00 0.000000e+00 0.000000e+00)) ((-7.028994e-01 -3.509695e-01 -1.172397e+02) (6.393957e-05 -1.977556e-04 1.173309e-02) (0.000000e+00 0.000000e+00 0.000000e+00))
9.900000e-02	((2.548038e+02 -5.899816e+02 -1.353257e-02) (7.149379e-02 2.032755e-02 3.958752e-05) (0.000000e+00 0.000000e+00 0.000000e+00)) ((-6.960286e-01 -3.721381e-01 -1.174047e+02) (6.837193e-05 -1.973603e-04 1.177309e-02) (0.000000e+00 0.000000e+00 0.000000e+00))
1.000000e-01	((2.552916e+02 -5.910836e+02 -1.066001e-02) (7.159397e-02 2.040426e-02 2.659486e-05) (0.000000e+00 0.000000e+00 0.000000e+00)) ((-6.978889e-01 -3.968157e-01 -1.176168e+02) (7.230848e-05 -1.980922e-04 1.181495e-02) (0.000000e+00 0.000000e+00 0.000000e+00))
1.010000e-01	((2.560822e+02 -5.923328e+02 -9.109056e-03) (7.171741e-02 2.049457e-02 9.582843e-06) (0.000000e+00 0.000000e+00 0.000000e+00)) ((-7.029312e-01 -4.197556e-01 -1.179477e+02) (7.628616e-05 -1.983465e-04 1.185879e-02) (0.000000e+00 0.000000e+00 0.000000e+00))
1.020000e-01	((2.572107e+02 -5.939214e+02 -1.034397e-02) (7.186200e-02 2.058792e-02 -1.042369e-05) (0.000000e+00 0.000000e+00 0.000000e+00)) ((-7.191658e-01 -4.443689e-01 -1.184195e+02) (8.237273e-05 -2.010727e-04 1.190199e-02) (0.000000e+00 0.000000e+00 0.000000e+00))
1.030000e-01	((2.586869e+02 -5.960123e+02 -1.383862e-02) (7.203224e-02 2.068020e-02 -3.468375e-05) (0.000000e+00 0.000000e+00 0.000000e+00)) ((-7.291180e-01 -4.582122e-01 -1.190435e+02) (8.910124e-05 -1.998429e-04 1.194388e-02) (0.000000e+00 0.000000e+00 0.000000e+00))
1.040000e-01	((2.604378e+02 -5.985715e+02 -1.644551e-02) (7.221120e-02 2.077065e-02 -5.966165e-05) (0.000000e+00 0.000000e+00 0.000000e+00)) ((-7.313060e-01 -4.598127e-01 -1.197917e+02) (9.614813e-05 -1.982917e-04 1.198384e-02) (0.000000e+00 0.000000e+00 0.000000e+00))
1.050000e-01	((2.624060e+02 -6.015355e+02 -1.943665e-02) (7.239239e-02 2.085163e-02 -8.875454e-05) (0.000000e+00 0.000000e+00 0.000000e+00)) ((-7.265065e-01 -4.573919e-01 -1.206390e+02) (1.022844e-04 -1.939305e-04 1.201905e-02) (0.000000e+00 0.000000e+00 0.000000e+00))
1.060000e-01	((2.645709e+02 -6.048411e+02 -2.075935e-02) (7.257239e-02 2.091508e-02 -1.100817e-04) (0.000000e+00 0.000000e+00 0.000000e+00)) ((-7.295254e-01 -4.609787e-01 -1.215710e+02) (1.068315e-04 -1.892402e-04 1.204725e-02) (0.000000e+00 0.000000e+00 0.000000e+00))
1.070000e-01	((2.669109e+02 -6.083846e+02 -2.098008e-02) (7.275531e-02 2.095463e-02 -1.247228e-04) (0.000000e+00 0.000000e+00 0.000000e+00)) ((-7.311194e-01 -4.681163e-01 -1.225706e+02) (1.101145e-04 -1.849931e-04 1.206707e-02) (0.000000e+00 0.000000e+00 0.000000e+00))
1.080000e-01	((2.694085e+02 -6.120224e+02 -1.909065e-02) (7.293400e-02 2.097747e-02 -1.418327e-04) (0.000000e+00 0.000000e+00 0.000000e+00)) ((-7.272115e-01 -4.691346e-01 -1.236173e+02) (1.155424e-04 -1.804047e-04 1.208006e-02) (0.000000e+00 0.000000e+00 0.000000e+00))
1.090000e-01	((2.720259e+02 -6.156457e+02 -2.031129e-02) (7.312473e-02 2.099175e-02 -1.590609e-04) (0.000000e+00 0.000000e+00 0.000000e+00)) ((-7.097625e-01 -4.620256e-01 -1.246920e+02) (1.194813e-04 -1.749350e-04 1.208955e-02) (0.000000e+00 0.000000e+00 0.000000e+00))
1.100000e-01	((2.746787e+02 -6.191397e+02 -2.460553e-02) (7.332421e-02 2.099648e-02 -1.793917e-04) (0.000000e+00 0.000000e+00 0.000000e+00)) ((-6.964018e-01 -4.509623e-01 -1.257594e+02) (1.229357e-04 -1.698281e-04 1.209491e-02) (0.000000e+00 0.000000e+00 0.000000e+00))
1.110000e-01	((2.773136e+02 -6.224738e+02 -3.064499e-02) (7.355093e-02 2.101142e-02 -1.971861e-04) (0.000000e+00 0.000000e+00 0.000000e+00)) ((-6.747504e-01 -4.320684e-01 -1.268025e+02) (1.219861e-04 -1.653254e-04 1.210227e-02) (0.000000e+00 0.000000e+00 0.000000e+00))