# Forces     
# CofR       : (0.000000e+00 0.000000e+00 0.000000e+00)
# Time       forces(pressure viscous porous) moment(pressure viscous porous)
1.000000e-03	((1.384189e+00 -2.141914e+00 -1.228294e-04) (6.107821e-03 -2.981978e-05 5.572879e-07) (0.000000e+00 0.000000e+00 0.000000e+00)) ((6.378548e-05 1.451076e-05 -5.677954e-01) (-1.817257e-07 -1.208463e-06 1.355939e-04) (0.000000e+00 0.000000e+00 0.000000e+00))
2.000000e-03	((9.327367e+00 -1.485980e+01 -7.256871e-04) (7.674731e-03 1.352279e-03 5.157275e-06) (0.000000e+00 0.000000e+00 0.000000e+00)) ((-9.215693e-04 -4.358782e-04 -3.703372e+00) (-8.453982e-07 -4.556128e-06 7.205043e-04) (0.000000e+00 0.000000e+00 0.000000e+00))
3.000000e-03	((1.604268e+01 -2.681796e+01 -8.039582e-04) (9.833282e-03 2.500653e-03 6.121014e-06) (0.000000e+00 0.000000e+00 0.000000e+00)) ((-1.599306e-03 -1.377786e-03 -6.372695e+00) (-4.541183e-06 2.949214e-06 1.193733e-03) (0.000000e+00 0.000000e+00 0.000000e+00))
4.000000e-03	((1.773137e+01 -3.107746e+01 -1.477079e-03) (1.310626e-02 4.150339e-03 4.834813e-06) (0.000000e+00 0.000000e+00 0.000000e+00)) ((2.621949e-03 -1.384939e-03 -7.063499e+00) (-5.028828e-06 4.139255e-06 1.910796e-03) (0.000000e+00 0.000000e+00 0.000000e+00))
5.000000e-03	((1.784519e+01 -3.350201e+01 -2.451690e-03) (1.610986e-02 5.437718e-03 9.998735e-06) (0.000000e+00 0.000000e+00 0.000000e+00)) ((1.904697e-02 2.700506e-03 -7.195819e+00) (-2.333281e-06 2.025222e-05 2.544822e-03) (0.000000e+00 0.000000e+00 0.000000e+00))
6.000000e-03	((1.808860e+01 -3.669916e+01 -4.114518e-03) (1.839270e-02 6.559736e-03 3.555571e-06) (0.000000e+00 0.000000e+00 0.000000e+00)) ((6.962390e-02 1.917679e-02 -7.461887e+00) (-1.566394e-06 2.098291e-05 3.065323e-03) (0.000000e+00 0.000000e+00 0.000000e+00))
7.000000e-03	((1.884433e+01 -4.100809e+01 -4.110726e-03) (2.012299e-02 7.251910e-03 -1.309788e-06) (0.000000e+00 0.000000e+00 0.000000e+00)) ((8.953855e-02 2.344785e-02 -7.985138e+00) (8.381498e-07 1.750413e-05 3.402691e-03) (0.000000e+00 0.000000e+00 0.000000e+00))
8.000000e-03	((2.119311e+01 -4.792058e+01 -3.649081e-03) (2.151414e-02 7.777772e-03 -1.060833e-05) (0.000000e+00 0.000000e+00 0.000000e+00)) ((1.024777e-01 2.813233e-02 -9.174507e+00) (6.734493e-07 1.899341e-05 3.664099e-03) (0.000000e+00 0.000000e+00 0.000000e+00))
9.000000e-03	((2.470635e+01 -5.670747e+01 -1.862032e-03) (2.281589e-02 8.159927e-03 -2.053248e-05) (0.000000e+00 0.000000e+00 0.000000e+00)) ((8.610395e-02 2.246934e-02 -1.083456e+01) (-1.630751e-07 2.151859e-05 3.870610e-03) (0.000000e+00 0.000000e+00 0.000000e+00))
1.000000e-02	((2.857539e+01 -6.594225e+01 -1.207375e-03) (2.407704e-02 8.414630e-03 -2.794726e-05) (0.000000e+00 0.000000e+00 0.000000e+00)) ((6.159821e-02 1.467637e-02 -1.261662e+01) (-3.128365e-06 2.164779e-05 4.048001e-03) (0.000000e+00 0.000000e+00 0.000000e+00))
1.100000e-02	((3.199959e+01 -7.436454e+01 -1.253009e-04) (2.530169e-02 8.620318e-03 -2.887083e-05) (0.000000e+00 0.000000e+00 0.000000e+00)) ((4.817248e-02 1.169318e-02 -1.420292e+01) (-4.422013e-06 1.954510e-05 4.213274e-03) (0.000000e+00 0.000000e+00 0.000000e+00))
1.200000e-02	((3.533591e+01 -8.262546e+01 7.377738e-04) (2.656270e-02 8.789001e-03 -3.180374e-05) (0.000000e+00 0.000000e+00 0.000000e+00)) ((5.564661e-02 1.842099e-02 -1.573764e+01) (-6.342840e-06 1.542776e-05 4.373851e-03) (0.000000e+00 0.000000e+00 0.000000e+00))
1.300000e-02	((3.836049e+01 -9.036496e+01 7.052653e-04) (2.778660e-02 8.930430e-03 -3.153962e-05) (0.000000e+00 0.000000e+00 0.000000e+00)) ((6.547135e-02 2.784348e-02 -1.713226e+01) (-5.544036e-06 1.148377e-05 4.528896e-03) (0.000000e+00 0.000000e+00 0.000000e+00))
1.400000e-02	((4.136505e+01 -9.818687e+01 3.241770e-04) (2.899867e-02 9.096759e-03 -4.242529e-05) (0.000000e+00 0.000000e+00 0.000000e+00)) ((8.697869e-02 3.823044e-02 -1.851842e+01) (-6.360962e-06 9.687466e-06 4.691420e-03) (0.000000e+00 0.000000e+00 0.000000e+00))
1.500000e-02	((4.498193e+01 -1.070808e+02 1.848018e-03) (3.023320e-02 9.299234e-03 -5.073057e-05) (0.000000e+00 0.000000e+00 0.000000e+00)) ((7.517410e-02 3.721179e-02 -2.014749e+01) (-4.034059e-06 1.046703e-05 4.865866e-03) (0.000000e+00 0.000000e+00 0.000000e+00))
1.600000e-02	((4.963991e+01 -1.179380e+02 7.975690e-04) (3.153411e-02 9.546146e-03 -5.704214e-05) (0.000000e+00 0.000000e+00 0.000000e+00)) ((7.988675e-02 4.196671e-02 -2.220867e+01) (-2.901430e-06 9.965824e-06 5.055072e-03) (0.000000e+00 0.000000e+00 0.000000e+00))
1.700000e-02	((5.536378e+01 -1.311145e+02 1.375617e-03) (3.291127e-02 9.823818e-03 -5.971592e-05) (0.000000e+00 0.000000e+00 0.000000e+00)) ((6.869806e-02 3.841494e-02 -2.473726e+01) (-2.289548e-06 9.119993e-06 5.255836e-03) (0.000000e+00 0.000000e+00 0.000000e+00))
1.800000e-02	((6.185462e+01 -1.463549e+02 2.939828e-03) (3.436936e-02 1.009934e-02 -5.971270e-05) (0.000000e+00 0.000000e+00 0.000000e+00)) ((5.373912e-02 3.054447e-02 -2.763322e+01) (-1.209410e-06 7.832090e-06 5.461047e-03) (0.000000e+00 0.000000e+00 0.000000e+00))
1.900000e-02	((6.842358e+01 -1.624369e+02 6.121470e-03) (3.586017e-02 1.036005e-02 -5.530191e-05) (0.000000e+00 0.000000e+00 0.000000e+00)) ((3.748014e-02 2.048540e-02 -3.060719e+01) (-8.555811e-07 2.536239e-06 5.663800e-03) (0.000000e+00 0.000000e+00 0.000000e+00))
2.000000e-02	((7.469641e+01 -1.785095e+02 7.173715e-03) (3.732485e-02 1.057830e-02 -5.099897e-05) (0.000000e+00 0.000000e+00 0.000000e+00)) ((1.717265e-02 9.775064e-03 -3.349620e+01) (1.356601e-06 -2.146661e-06 5.855872e-03) (0.000000e+00 0.000000e+00 0.000000e+00))
2.100000e-02	((8.047486e+01 -1.941001e+02 6.363101e-03) (3.872333e-02 1.075443e-02 -4.945822e-05) (0.000000e+00 0.000000e+00 0.000000e+00)) ((-1.578208e-02 -2.112377e-03 -3.621077e+01) (1.213301e-06 -4.729405e-06 6.034469e-03) (0.000000e+00 0.000000e+00 0.000000e+00))
2.200000e-02	((8.577120e+01 -2.090096e+02 3.624736e-03) (4.002741e-02 1.089406e-02 -5.373951e-05) (0.000000e+00 0.000000e+00 0.000000e+00)) ((-2.536529e-02 -3.730104e-03 -3.874420e+01) (1.325489e-06 -4.631204e-06 6.200444e-03) (0.000000e+00 0.000000e+00 0.000000e+00))
2.300000e-02	((9.096370e+01 -2.237278e+02 -5.347445e-04) (4.127974e-02 1.105597e-02 -5.789402e-05) (0.000000e+00 0.000000e+00 0.000000e+00)) ((-4.022841e-02 -2.955079e-03 -4.124405e+01) (3.194124e-06 -6.141775e-06 6.372162e-03) (0.000000e+00 0.000000e+00 0.000000e+00))
2.400000e-02	((9.638547e+01 -2.388717e+02 -3.221108e-03) (4.252161e-02 1.125451e-02 -6.647795e-05) (0.000000e+00 0.000000e+00 0.000000e+00)) ((-4.277269e-02 -1.203483e-03 -4.385323e+01) (3.705908e-06 -5.969932e-06 6.554836e-03) (0.000000e+00 0.000000e+00 0.000000e+00))
2.500000e-02	((1.026299e+02 -2.556961e+02 -5.833595e-03) (4.375792e-02 1.147714e-02 -7.883105e-05) (0.000000e+00 0.000000e+00 0.000000e+00)) ((-4.942508e-02 2.157537e-03 -4.682615e+01) (6.056402e-06 -5.557413e-06 6.745058e-03) (0.000000e+00 0.000000e+00 0.000000e+00))
2.600000e-02	((1.098788e+02 -2.745748e+02 -4.625889e-03) (4.497943e-02 1.169623e-02 -9.104781e-05) (0.000000e+00 0.000000e+00 0.000000e+00)) ((-3.505832e-02 5.919200e-03 -5.023590e+01) (6.964803e-06 -4.147567e-06 6.935214e-03) (0.000000e+00 0.000000e+00 0.000000e+00))
2.700000e-02	((1.180110e+02 -2.952763e+02 -3.771160e-03) (4.617607e-02 1.188601e-02 -9.854047e-05) (0.000000e+00 0.000000e+00 0.000000e+00)) ((-1.125379e-02 8.982974e-03 -5.402535e+01) (9.532241e-06 -6.512803e-06 7.118248e-03) (0.000000e+00 0.000000e+00 0.000000e+00))
2.800000e-02	((1.268356e+02 -3.175877e+02 -4.140994e-03) (4.736566e-02 1.205435e-02 -9.587684e-05) (0.000000e+00 0.000000e+00 0.000000e+00)) ((1.531171e-02 7.220424e-03 -5.811553e+01) (1.182817e-05 -9.971165e-06 7.296892e-03) (0.000000e+00 0.000000e+00 0.000000e+00))
2.900000e-02	((1.360781e+02 -3.410803e+02 -5.776778e-03) (4.853785e-02 1.218814e-02 -9.670466e-05) (0.000000e+00 0.000000e+00 0.000000e+00)) ((6.929223e-03 -4.861267e-03 -6.239137e+01) (1.362727e-05 -1.425252e-05 7.469010e-03) (0.000000e+00 0.000000e+00 0.000000e+00))
3.000000e-02	((1.454748e+02 -3.652296e+02 -7.597346e-03) (4.964054e-02 1.228470e-02 -9.119137e-05) (0.000000e+00 0.000000e+00 0.000000e+00)) ((-2.092947e-02 -2.366482e-02 -6.674082e+01) (1.537706e-05 -1.903269e-05 7.629444e-03) (0.000000e+00 0.000000e+00 0.000000e+00))
3.100000e-02	((1.548324e+02 -3.894771e+02 -7.202897e-03) (5.063616e-02 1.233539e-02 -8.984332e-05) (0.000000e+00 0.000000e+00 0.000000e+00)) ((-6.403851e-02 -4.293655e-02 -7.107391e+01) (1.701170e-05 -2.341068e-05 7.776005e-03) (0.000000e+00 0.000000e+00 0.000000e+00))
3.200000e-02	((1.641779e+02 -4.137580e+02 -5.417100e-03) (5.143641e-02 1.233199e-02 -7.993147e-05) (0.000000e+00 0.000000e+00 0.000000e+00)) ((-9.395149e-02 -5.556202e-02 -7.540021e+01) (1.731574e-05 -2.887078e-05 7.901074e-03) (0.000000e+00 0.000000e+00 0.000000e+00))
3.300000e-02	((1.736632e+02 -4.382216e+02 -1.951051e-03) (5.220555e-02 1.234564e-02 -7.380499e-05) (0.000000e+00 0.000000e+00 0.000000e+00)) ((-1.466678e-01 -7.303941e-02 -7.978513e+01) (1.924496e-05 -3.370582e-05 8.030060e-03) (0.000000e+00 0.000000e+00 0.000000e+00))
3.400000e-02	((1.835454e+02 -4.633365e+02 -3.223203e-04) (5.296851e-02 1.237020e-02 -6.666016e-05) (0.000000e+00 0.000000e+00 0.000000e+00)) ((-2.019979e-01 -9.004191e-02 -8.434039e+01) (2.087874e-05 -4.133791e-05 8.160503e-03) (0.000000e+00 0.000000e+00 0.000000e+00))
3.500000e-02	((1.938496e+02 -4.891207e+02 -9.082395e-04) (5.383383e-02 1.247433e-02 -7.334970e-05) (0.000000e+00 0.000000e+00 0.000000e+00)) ((-2.695901e-01 -1.051436e-01 -8.907435e+01) (2.125537e-05 -4.140111e-05 8.314069e-03) (0.000000e+00 0.000000e+00 0.000000e+00))
3.600000e-02	((2.048474e+02 -5.163293e+02 4.214754e-04) (5.492726e-02 1.263994e-02 -7.698861e-05) (0.000000e+00 0.000000e+00 0.000000e+00)) ((-3.162357e-01 -1.166484e-01 -9.411338e+01) (1.962268e-05 -4.057750e-05 8.494316e-03) (0.000000e+00 0.000000e+00 0.000000e+00))
3.700000e-02	((2.164921e+02 -5.447704e+02 5.266474e-04) (5.604535e-02 1.284079e-02 -7.186754e-05) (0.000000e+00 0.000000e+00 0.000000e+00)) ((-3.723783e-01 -1.268891e-01 -9.942863e+01) (1.757153e-05 -4.678212e-05 8.682356e-03) (0.000000e+00 0.000000e+00 0.000000e+00))
3.800000e-02	((2.286172e+02 -5.740421e+02 5.814219e-04) (5.712752e-02 1.308844e-02 -7.173636e-05) (0.000000e+00 0.000000e+00 0.000000e+00)) ((-3.772976e-01 -1.303099e-01 -1.049385e+02) (1.683070e-05 -4.368094e-05 8.871625e-03) (0.000000e+00 0.000000e+00 0.000000e+00))
3.900000e-02	((2.410831e+02 -6.038047e+02 -1.462282e-03) (5.834231e-02 1.333881e-02 -6.581655e-05) (0.000000e+00 0.000000e+00 0.000000e+00)) ((-3.967999e-01 -1.413722e-01 -1.105857e+02) (1.405618e-05 -4.976773e-05 9.075529e-03) (0.000000e+00 0.000000e+00 0.000000e+00))
4.000000e-02	((2.538664e+02 -6.340413e+02 -1.994250e-03) (5.966587e-02 1.361492e-02 -4.734402e-05) (0.000000e+00 0.000000e+00 0.000000e+00)) ((-4.096441e-01 -1.559917e-01 -1.163640e+02) (1.240574e-05 -5.679650e-05 9.293029e-03) (0.000000e+00 0.000000e+00 0.000000e+00))
4.100000e-02	((2.667862e+02 -6.643942e+02 -1.192543e-03) (6.106330e-02 1.391168e-02 -2.503244e-05) (0.000000e+00 0.000000e+00 0.000000e+00)) ((-4.397071e-01 -1.852890e-01 -1.222010e+02) (1.082355e-05 -6.485677e-05 9.517320e-03) (0.000000e+00 0.000000e+00 0.000000e+00))
4.200000e-02	((2.798859e+02 -6.950282e+02 2.568847e-03) (6.251721e-02 1.423403e-02 -9.150576e-06) (0.000000e+00 0.000000e+00 0.000000e+00)) ((-4.736724e-01 -2.244819e-01 -1.281179e+02) (1.174805e-05 -6.957229e-05 9.749610e-03) (0.000000e+00 0.000000e+00 0.000000e+00))
4.300000e-02	((2.932310e+02 -7.260260e+02 5.856288e-03) (6.402369e-02 1.460472e-02 4.512335e-06) (0.000000e+00 0.000000e+00 0.000000e+00)) ((-5.248853e-01 -2.677026e-01 -1.341512e+02) (1.260949e-05 -7.303840e-05 9.992100e-03) (0.000000e+00 0.000000e+00 0.000000e+00))
4.400000e-02	((3.069513e+02 -7.576068e+02 1.113301e-02) (6.554548e-02 1.500911e-02 1.913997e-05) (0.000000e+00 0.000000e+00 0.000000e+00)) ((-5.187766e-01 -2.876603e-01 -1.403593e+02) (1.615341e-05 -7.846815e-05 1.023947e-02) (0.000000e+00 0.000000e+00 0.000000e+00))
4.500000e-02	((3.210030e+02 -7.895769e+02 1.363090e-02) (6.708751e-02 1.544102e-02 3.019188e-05) (0.000000e+00 0.000000e+00 0.000000e+00)) ((-5.415426e-01 -3.143019e-01 -1.467238e+02) (1.629443e-05 -8.302772e-05 1.049060e-02) (0.000000e+00 0.000000e+00 0.000000e+00))
4.600000e-02	((3.354424e+02 -8.220976e+02 1.282898e-02) (6.868202e-02 1.589535e-02 3.921254e-05) (0.000000e+00 0.000000e+00 0.000000e+00)) ((-5.208185e-01 -3.190698e-01 -1.532695e+02) (2.078712e-05 -8.626555e-05 1.074992e-02) (0.000000e+00 0.000000e+00 0.000000e+00))
4.700000e-02	((3.499064e+02 -8.541643e+02 6.940008e-03) (7.033709e-02 1.637886e-02 4.351560e-05) (0.000000e+00 0.000000e+00 0.000000e+00)) ((-4.708464e-01 -3.068556e-01 -1.598182e+02) (2.067152e-05 -8.656877e-05 1.101789e-02) (0.000000e+00 0.000000e+00 0.000000e+00))
4.800000e-02	((3.643097e+02 -8.854959e+02 2.463637e-03) (7.204082e-02 1.688620e-02 4.345537e-05) (0.000000e+00 0.000000e+00 0.000000e+00)) ((-4.090998e-01 -2.845873e-01 -1.663251e+02) (2.529660e-05 -8.603599e-05 1.129310e-02) (0.000000e+00 0.000000e+00 0.000000e+00))
4.900000e-02	((3.787757e+02 -9.164368e+02 -2.709565e-03) (7.381225e-02 1.743224e-02 4.115094e-05) (0.000000e+00 0.000000e+00 0.000000e+00)) ((-3.291526e-01 -2.472733e-01 -1.728562e+02) (2.561663e-05 -8.639682e-05 1.157954e-02) (0.000000e+00 0.000000e+00 0.000000e+00))
5.000000e-02	((3.933730e+02 -9.473302e+02 -6.862580e-04) (7.563503e-02 1.802224e-02 4.026167e-05) (0.000000e+00 0.000000e+00 0.000000e+00)) ((-2.755423e-01 -2.309675e-01 -1.794477e+02) (2.842117e-05 -8.714018e-05 1.187804e-02) (0.000000e+00 0.000000e+00 0.000000e+00))
5.100000e-02	((4.080486e+02 -9.783954e+02 1.024969e-03) (7.750651e-02 1.864380e-02 2.999889e-05) (0.000000e+00 0.000000e+00 0.000000e+00)) ((-2.260528e-01 -2.063282e-01 -1.861022e+02) (2.653345e-05 -8.592927e-05 1.218575e-02) (0.000000e+00 0.000000e+00 0.000000e+00))
5.200000e-02	((4.226544e+02 -1.009484e+03 4.842236e-03) (7.939055e-02 1.928173e-02 2.371839e-05) (0.000000e+00 0.000000e+00 0.000000e+00)) ((-1.760041e-01 -1.779877e-01 -1.927504e+02) (2.921066e-05 -8.614544e-05 1.249748e-02) (0.000000e+00 0.000000e+00 0.000000e+00))
5.300000e-02	((4.369519e+02 -1.040130e+03 9.042360e-03) (8.126246e-02 1.993313e-02 1.051710e-05) (0.000000e+00 0.000000e+00 0.000000e+00)) ((-1.685469e-01 -1.548666e-01 -1.992918e+02) (2.686564e-05 -8.481504e-05 1.281206e-02) (0.000000e+00 0.000000e+00 0.000000e+00))
5.400000e-02	((4.507549e+02 -1.069881e+03 1.665627e-02) (8.309621e-02 2.058508e-02 1.206145e-07) (0.000000e+00 0.000000e+00 0.000000e+00)) ((-1.804094e-01 -1.313394e-01 -2.056375e+02) (2.801183e-05 -8.132623e-05 1.312573e-02) (0.000000e+00 0.000000e+00 0.000000e+00))
5.500000e-02	((4.638966e+02 -1.098204e+03 2.225575e-02) (8.487866e-02 2.123787e-02 -1.010975e-05) (0.000000e+00 0.000000e+00 0.000000e+00)) ((-2.373477e-01 -1.218305e-01 -2.117050e+02) (2.487017e-05 -7.993714e-05 1.343801e-02) (0.000000e+00 0.000000e+00 0.000000e+00))
5.600000e-02	((4.763971e+02 -1.125008e+03 2.880904e-02) (8.661162e-02 2.190596e-02 -1.568371e-05) (0.000000e+00 0.000000e+00 0.000000e+00)) ((-2.571008e-01 -9.142596e-02 -2.174974e+02) (2.467485e-05 -7.811063e-05 1.375129e-02) (0.000000e+00 0.000000e+00 0.000000e+00))
5.700000e-02	((4.882909e+02 -1.150347e+03 3.342214e-02) (8.829614e-02 2.257574e-02 -2.362053e-05) (0.000000e+00 0.000000e+00 0.000000e+00)) ((-2.524020e-01 -5.467121e-02 -2.230267e+02) (2.070204e-05 -7.607641e-05 1.406306e-02) (0.000000e+00 0.000000e+00 0.000000e+00))
5.800000e-02	((4.996890e+02 -1.174460e+03 3.838798e-02) (8.993618e-02 2.326838e-02 -2.418623e-05) (0.000000e+00 0.000000e+00 0.000000e+00)) ((-2.257599e-01 -7.734527e-03 -2.283407e+02) (2.085188e-05 -7.563080e-05 1.437826e-02) (0.000000e+00 0.000000e+00 0.000000e+00))
5.900000e-02	((5.107992e+02 -1.197915e+03 4.200256e-02) (9.153385e-02 2.396648e-02 -1.919319e-05) (0.000000e+00 0.000000e+00 0.000000e+00)) ((-2.428303e-01 1.805319e-02 -2.335368e+02) (1.850861e-05 -7.954562e-05 1.469554e-02) (0.000000e+00 0.000000e+00 0.000000e+00))
6.000000e-02	((5.217329e+02 -1.221003e+03 4.701626e-02) (9.307618e-02 2.466343e-02 -9.139977e-06) (0.000000e+00 0.000000e+00 0.000000e+00)) ((-2.685655e-01 3.316031e-02 -2.386683e+02) (2.160816e-05 -8.590845e-05 1.500959e-02) (0.000000e+00 0.000000e+00 0.000000e+00))
6.100000e-02	((5.325449e+02 -1.243917e+03 5.162960e-02) (9.455313e-02 2.534026e-02 -1.789980e-06) (0.000000e+00 0.000000e+00 0.000000e+00)) ((-3.387025e-01 1.800199e-02 -2.437659e+02) (1.949796e-05 -9.280233e-05 1.531549e-02) (0.000000e+00 0.000000e+00 0.000000e+00))
6.200000e-02	((5.431005e+02 -1.266460e+03 5.348198e-02) (9.596687e-02 2.598679e-02 1.322921e-05) (0.000000e+00 0.000000e+00 0.000000e+00)) ((-4.013086e-01 -7.261894e-03 -2.487693e+02) (2.030147e-05 -1.002544e-04 1.561008e-02) (0.000000e+00 0.000000e+00 0.000000e+00))
6.300000e-02	((5.535248e+02 -1.288918e+03 5.477528e-02) (9.732242e-02 2.661089e-02 1.813952e-05) (0.000000e+00 0.000000e+00 0.000000e+00)) ((-4.639510e-01 -3.844885e-02 -2.537358e+02) (1.931339e-05 -1.032267e-04 1.589433e-02) (0.000000e+00 0.000000e+00 0.000000e+00))
6.400000e-02	((5.637216e+02 -1.311113e+03 5.577741e-02) (9.860359e-02 2.719212e-02 2.714789e-05) (0.000000e+00 0.000000e+00 0.000000e+00)) ((-5.235844e-01 -8.140048e-02 -2.586209e+02) (1.949765e-05 -1.078347e-04 1.616297e-02) (0.000000e+00 0.000000e+00 0.000000e+00))
6.500000e-02	((5.737756e+02 -1.333150e+03 5.897338e-02) (9.982384e-02 2.773654e-02 3.263737e-05) (0.000000e+00 0.000000e+00 0.000000e+00)) ((-5.595182e-01 -1.141729e-01 -2.634544e+02) (1.874629e-05 -1.107114e-04 1.641727e-02) (0.000000e+00 0.000000e+00 0.000000e+00))
6.600000e-02	((5.834606e+02 -1.354659e+03 6.287066e-02) (1.009819e-01 2.823944e-02 3.668885e-05) (0.000000e+00 0.000000e+00 0.000000e+00)) ((-5.543636e-01 -1.285307e-01 -2.681316e+02) (2.186518e-05 -1.162037e-04 1.665609e-02) (0.000000e+00 0.000000e+00 0.000000e+00))
6.700000e-02	((5.927013e+02 -1.375510e+03 6.822232e-02) (1.020616e-01 2.870435e-02 4.307079e-05) (0.000000e+00 0.000000e+00 0.000000e+00)) ((-5.272808e-01 -1.298427e-01 -2.726137e+02) (2.216160e-05 -1.208231e-04 1.687933e-02) (0.000000e+00 0.000000e+00 0.000000e+00))
6.800000e-02	((6.013385e+02 -1.395352e+03 7.560951e-02) (1.030661e-01 2.913619e-02 4.058514e-05) (0.000000e+00 0.000000e+00 0.000000e+00)) ((-4.859011e-01 -1.294400e-01 -2.768219e+02) (2.471356e-05 -1.228152e-04 1.708770e-02) (0.000000e+00 0.000000e+00 0.000000e+00))
6.900000e-02	((6.093183e+02 -1.414067e+03 8.138287e-02) (1.039909e-01 2.953860e-02 5.034778e-05) (0.000000e+00 0.000000e+00 0.000000e+00)) ((-4.600669e-01 -1.329256e-01 -2.807266e+02) (2.569340e-05 -1.308642e-04 1.728274e-02) (0.000000e+00 0.000000e+00 0.000000e+00))
7.000000e-02	((6.166803e+02 -1.431654e+03 8.817810e-02) (1.048314e-01 2.991916e-02 5.164853e-05) (0.000000e+00 0.000000e+00 0.000000e+00)) ((-4.386075e-01 -1.428557e-01 -2.843406e+02) (2.969167e-05 -1.300259e-04 1.746606e-02) (0.000000e+00 0.000000e+00 0.000000e+00))
7.100000e-02	((6.235740e+02 -1.448292e+03 9.657804e-02) (1.055874e-01 3.027906e-02 5.892141e-05) (0.000000e+00 0.000000e+00 0.000000e+00)) ((-4.286803e-01 -1.586584e-01 -2.877252e+02) (3.340488e-05 -1.346043e-04 1.763837e-02) (0.000000e+00 0.000000e+00 0.000000e+00))
7.200000e-02	((6.302960e+02 -1.464517e+03 1.023392e-01) (1.062660e-01 3.062611e-02 6.641390e-05) (0.000000e+00 0.000000e+00 0.000000e+00)) ((-4.534290e-01 -1.934890e-01 -2.910154e+02) (3.599488e-05 -1.358052e-04 1.780165e-02) (0.000000e+00 0.000000e+00 0.000000e+00))
7.300000e-02	((6.369273e+02 -1.480534e+03 1.089908e-01) (1.068632e-01 3.095962e-02 7.478771e-05) (0.000000e+00 0.000000e+00 0.000000e+00)) ((-4.797506e-01 -2.266589e-01 -2.942515e+02) (3.771886e-05 -1.390242e-04 1.795645e-02) (0.000000e+00 0.000000e+00 0.000000e+00))
7.400000e-02	((6.435031e+02 -1.496434e+03 1.123249e-01) (1.073935e-01 3.127331e-02 8.576177e-05) (0.000000e+00 0.000000e+00 0.000000e+00)) ((-4.933365e-01 -2.546223e-01 -2.974518e+02) (4.054112e-05 -1.436354e-04 1.810072e-02) (0.000000e+00 0.000000e+00 0.000000e+00))
7.500000e-02	((6.497984e+02 -1.511821e+03 1.146896e-01) (1.078541e-01 3.157265e-02 1.105699e-04) (0.000000e+00 0.000000e+00 0.000000e+00)) ((-5.065210e-01 -2.765701e-01 -3.005146e+02) (4.256547e-05 -1.538875e-04 1.823597e-02) (0.000000e+00 0.000000e+00 0.000000e+00))
7.600000e-02	((6.559184e+02 -1.526869e+03 1.166738e-01) (1.082456e-01 3.185701e-02 1.234641e-04) (0.000000e+00 0.000000e+00 0.000000e+00)) ((-5.242551e-01 -2.927246e-01 -3.034878e+02) (4.608887e-05 -1.569968e-04 1.836220e-02) (0.000000e+00 0.000000e+00 0.000000e+00))
7.700000e-02	((6.617867e+02 -1.541443e+03 1.227446e-01) (1.086031e-01 3.213194e-02 1.483762e-04) (0.000000e+00 0.000000e+00 0.000000e+00)) ((-5.316683e-01 -2.965759e-01 -3.063394e+02) (4.628834e-05 -1.640533e-04 1.848174e-02) (0.000000e+00 0.000000e+00 0.000000e+00))
7.800000e-02	((6.676642e+02 -1.555922e+03 1.287738e-01) (1.088950e-01 3.238037e-02 1.593042e-04) (0.000000e+00 0.000000e+00 0.000000e+00)) ((-5.436532e-01 -3.062214e-01 -3.091824e+02) (4.809256e-05 -1.644125e-04 1.859011e-02) (0.000000e+00 0.000000e+00 0.000000e+00))
7.900000e-02	((6.734877e+02 -1.570174e+03 1.286895e-01) (1.091365e-01 3.261184e-02 1.756620e-04) (0.000000e+00 0.000000e+00 0.000000e+00)) ((-5.776534e-01 -3.268915e-01 -3.119882e+02) (4.869187e-05 -1.674930e-04 1.868842e-02) (0.000000e+00 0.000000e+00 0.000000e+00))
8.000000e-02	((6.793696e+02 -1.584381e+03 1.276284e-01) (1.093410e-01 3.281944e-02 1.822539e-04) (0.000000e+00 0.000000e+00 0.000000e+00)) ((-6.205556e-01 -3.575448e-01 -3.148099e+02) (4.859398e-05 -1.668892e-04 1.877664e-02) (0.000000e+00 0.000000e+00 0.000000e+00))
8.100000e-02	((6.854593e+02 -1.598753e+03 1.233523e-01) (1.094942e-01 3.301430e-02 1.929293e-04) (0.000000e+00 0.000000e+00 0.000000e+00)) ((-6.682405e-01 -3.902024e-01 -3.177063e+02) (4.782324e-05 -1.682259e-04 1.885693e-02) (0.000000e+00 0.000000e+00 0.000000e+00))
8.200000e-02	((6.918881e+02 -1.613506e+03 1.220341e-01) (1.096089e-01 3.320022e-02 1.894524e-04) (0.000000e+00 0.000000e+00 0.000000e+00)) ((-6.918959e-01 -4.144410e-01 -3.207360e+02) (4.774270e-05 -1.652905e-04 1.893094e-02) (0.000000e+00 0.000000e+00 0.000000e+00))
8.300000e-02	((6.985698e+02 -1.628444e+03 1.208639e-01) (1.096875e-01 3.337257e-02 1.921542e-04) (0.000000e+00 0.000000e+00 0.000000e+00)) ((-6.970918e-01 -4.275785e-01 -3.238562e+02) (4.482751e-05 -1.650686e-04 1.899824e-02) (0.000000e+00 0.000000e+00 0.000000e+00))
8.400000e-02	((7.055154e+02 -1.643620e+03 1.182775e-01) (1.097584e-01 3.353490e-02 1.903388e-04) (0.000000e+00 0.000000e+00 0.000000e+00)) ((-7.123385e-01 -4.483066e-01 -3.270776e+02) (4.031823e-05 -1.646063e-04 1.906088e-02) (0.000000e+00 0.000000e+00 0.000000e+00))
8.500000e-02	((7.126143e+02 -1.658814e+03 1.236757e-01) (1.097941e-01 3.368594e-02 1.895087e-04) (0.000000e+00 0.000000e+00 0.000000e+00)) ((-7.201993e-01 -4.636589e-01 -3.303497e+02) (3.692563e-05 -1.611164e-04 1.911771e-02) (0.000000e+00 0.000000e+00 0.000000e+00))
8.600000e-02	((7.198443e+02 -1.673970e+03 1.276939e-01) (1.098099e-01 3.381421e-02 1.819496e-04) (0.000000e+00 0.000000e+00 0.000000e+00)) ((-7.193626e-01 -4.793421e-01 -3.336611e+02) (3.119365e-05 -1.534578e-04 1.916503e-02) (0.000000e+00 0.000000e+00 0.000000e+00))
8.700000e-02	((7.271767e+02 -1.689000e+03 1.227169e-01) (1.098105e-01 3.393052e-02 1.830506e-04) (0.000000e+00 0.000000e+00 0.000000e+00)) ((-7.293833e-01 -4.984144e-01 -3.369977e+02) (2.985509e-05 -1.523276e-04 1.920797e-02) (0.000000e+00 0.000000e+00 0.000000e+00))
8.800000e-02	((7.345167e+02 -1.703720e+03 1.101174e-01) (1.097944e-01 3.402422e-02 1.820324e-04) (0.000000e+00 0.000000e+00 0.000000e+00)) ((-7.484375e-01 -5.209524e-01 -3.403184e+02) (2.843823e-05 -1.536943e-04 1.924237e-02) (0.000000e+00 0.000000e+00 0.000000e+00))
8.900000e-02	((7.417016e+02 -1.717773e+03 1.009879e-01) (1.097697e-01 3.410566e-02 1.899676e-04) (0.000000e+00 0.000000e+00 0.000000e+00)) ((-7.663247e-01 -5.353938e-01 -3.435442e+02) (2.770884e-05 -1.581079e-04 1.927195e-02) (0.000000e+00 0.000000e+00 0.000000e+00))
9.000000e-02	((7.488055e+02 -1.731246e+03 1.014561e-01) (1.097403e-01 3.417319e-02 1.898756e-04) (0.000000e+00 0.000000e+00 0.000000e+00)) ((-7.646590e-01 -5.334174e-01 -3.466986e+02) (2.709928e-05 -1.603381e-04 1.929670e-02) (0.000000e+00 0.000000e+00 0.000000e+00))
9.100000e-02	((7.559059e+02 -1.744189e+03 1.095537e-01) (1.097269e-01 3.422194e-02 2.059930e-04) (0.000000e+00 0.000000e+00 0.000000e+00)) ((-7.712314e-01 -5.315986e-01 -3.498055e+02) (2.433012e-05 -1.690755e-04 1.931655e-02) (0.000000e+00 0.000000e+00 0.000000e+00))
9.200000e-02	((7.632192e+02 -1.756930e+03 1.180031e-01) (1.097190e-01 3.425108e-02 2.109846e-04) (0.000000e+00 0.000000e+00 0.000000e+00)) ((-7.573076e-01 -5.279368e-01 -3.529557e+02) (2.392660e-05 -1.729272e-04 1.933091e-02) (0.000000e+00 0.000000e+00 0.000000e+00))
9.300000e-02	((7.706251e+02 -1.769232e+03 1.254383e-01) (1.097140e-01 3.427455e-02 2.178140e-04) (0.000000e+00 0.000000e+00 0.000000e+00)) ((-7.420716e-01 -5.298983e-01 -3.560967e+02) (2.304199e-05 -1.767090e-04 1.934193e-02) (0.000000e+00 0.000000e+00 0.000000e+00))
9.400000e-02	((7.778418e+02 -1.780531e+03 1.318850e-01) (1.097498e-01 3.431354e-02 2.290365e-04) (0.000000e+00 0.000000e+00 0.000000e+00)) ((-7.389839e-01 -5.515615e-01 -3.590969e+02) (2.904399e-05 -1.910708e-04 1.935543e-02) (0.000000e+00 0.000000e+00 0.000000e+00))
9.500000e-02	((7.842175e+02 -1.789738e+03 1.373030e-01) (1.097999e-01 3.436238e-02 2.400464e-04) (0.000000e+00 0.000000e+00 0.000000e+00)) ((-7.179888e-01 -5.620848e-01 -3.616749e+02) (3.142671e-05 -1.990905e-04 1.936745e-02) (0.000000e+00 0.000000e+00 0.000000e+00))
9.600000e-02	((7.892921e+02 -1.796197e+03 1.425886e-01) (1.098744e-01 3.440603e-02 2.419634e-04) (0.000000e+00 0.000000e+00 0.000000e+00)) ((-7.076835e-01 -5.730439e-01 -3.636507e+02) (3.514154e-05 -2.076949e-04 1.937637e-02) (0.000000e+00 0.000000e+00 0.000000e+00))
9.700000e-02	((7.930520e+02 -1.799895e+03 1.550279e-01) (1.099703e-01 3.445116e-02 2.527336e-04) (0.000000e+00 0.000000e+00 0.000000e+00)) ((-6.458310e-01 -5.468786e-01 -3.650263e+02) (3.862842e-05 -2.169716e-04 1.938528e-02) (0.000000e+00 0.000000e+00 0.000000e+00))
9.800000e-02	((7.961107e+02 -1.802179e+03 1.657963e-01) (1.100672e-01 3.449954e-02 2.581765e-04) (0.000000e+00 0.000000e+00 0.000000e+00)) ((-6.297237e-01 -5.557476e-01 -3.660956e+02) (4.249173e-05 -2.281411e-04 1.939228e-02) (0.000000e+00 0.000000e+00 0.000000e+00))
9.900000e-02	((7.994458e+02 -1.804757e+03 1.752300e-01) (1.101850e-01 3.457247e-02 2.687777e-04) (0.000000e+00 0.000000e+00 0.000000e+00)) ((-6.277405e-01 -5.653925e-01 -3.672862e+02) (4.782160e-05 -2.406077e-04 1.940606e-02) (0.000000e+00 0.000000e+00 0.000000e+00))
1.000000e-01	((8.032516e+02 -1.807949e+03 1.889465e-01) (1.103351e-01 3.466970e-02 2.634347e-04) (0.000000e+00 0.000000e+00 0.000000e+00)) ((-6.437847e-01 -5.861310e-01 -3.686696e+02) (5.652019e-05 -2.513956e-04 1.942829e-02) (0.000000e+00 0.000000e+00 0.000000e+00))
1.010000e-01	((8.073567e+02 -1.811581e+03 2.002454e-01) (1.105320e-01 3.480097e-02 2.659569e-04) (0.000000e+00 0.000000e+00 0.000000e+00)) ((-6.848341e-01 -6.077275e-01 -3.701667e+02) (6.433984e-05 -2.653707e-04 1.946423e-02) (0.000000e+00 0.000000e+00 0.000000e+00))
1.020000e-01	((8.114751e+02 -1.815269e+03 2.087115e-01) (1.107444e-01 3.495344e-02 2.530992e-04) (0.000000e+00 0.000000e+00 0.000000e+00)) ((-7.243323e-01 -6.271040e-01 -3.716564e+02) (7.573664e-05 -2.715038e-04 1.951096e-02) (0.000000e+00 0.000000e+00 0.000000e+00))
1.030000e-01	((8.154278e+02 -1.818643e+03 2.138712e-01) (1.109891e-01 3.515013e-02 2.510801e-04) (0.000000e+00 0.000000e+00 0.000000e+00)) ((-7.434387e-01 -6.296235e-01 -3.730501e+02) (8.507711e-05 -2.800538e-04 1.957467e-02) (0.000000e+00 0.000000e+00 0.000000e+00))
1.040000e-01	((8.191431e+02 -1.821534e+03 2.198692e-01) (1.112819e-01 3.539266e-02 2.521290e-04) (0.000000e+00 0.000000e+00 0.000000e+00)) ((-7.625532e-01 -6.340130e-01 -3.743159e+02) (9.863035e-05 -2.925168e-04 1.965230e-02) (0.000000e+00 0.000000e+00 0.000000e+00))
1.050000e-01	((8.226128e+02 -1.823884e+03 2.330785e-01) (1.116233e-01 3.566122e-02 2.545616e-04) (0.000000e+00 0.000000e+00 0.000000e+00)) ((-7.765800e-01 -6.362218e-01 -3.754546e+02) (1.076582e-04 -3.014750e-04 1.973709e-02) (0.000000e+00 0.000000e+00 0.000000e+00))
1.060000e-01	((8.257433e+02 -1.825540e+03 2.466216e-01) (1.119987e-01 3.594967e-02 2.482387e-04) (0.000000e+00 0.000000e+00 0.000000e+00)) ((-7.814629e-01 -6.351887e-01 -3.764336e+02) (1.195319e-04 -3.111609e-04 1.982662e-02) (0.000000e+00 0.000000e+00 0.000000e+00))
1.070000e-01	((8.286204e+02 -1.826711e+03 2.554100e-01) (1.123991e-01 3.624307e-02 2.545808e-04) (0.000000e+00 0.000000e+00 0.000000e+00)) ((-7.979598e-01 -6.386607e-01 -3.773007e+02) (1.298708e-04 -3.222107e-04 1.991737e-02) (0.000000e+00 0.000000e+00 0.000000e+00))
1.080000e-01	((8.318943e+02 -1.828467e+03 2.603674e-01) (1.128099e-01 3.653859e-02 2.573066e-04) (0.000000e+00 0.000000e+00 0.000000e+00)) ((-8.316872e-01 -6.489609e-01 -3.783441e+02) (1.377567e-04 -3.293967e-04 2.000786e-02) (0.000000e+00 0.000000e+00 0.000000e+00))
1.090000e-01	((8.359933e+02 -1.831623e+03 2.573977e-01) (1.132423e-01 3.683050e-02 2.620304e-04) (0.000000e+00 0.000000e+00 0.000000e+00)) ((-8.727796e-01 -6.483043e-01 -3.797606e+02) (1.438759e-04 -3.384935e-04 2.009841e-02) (0.000000e+00 0.000000e+00 0.000000e+00))
1.100000e-01	((8.409104e+02 -1.836315e+03 2.532509e-01) (1.136860e-01 3.710120e-02 2.551502e-04) (0.000000e+00 0.000000e+00 0.000000e+00)) ((-9.006398e-01 -6.315951e-01 -3.815557e+02) (1.494510e-04 -3.393611e-04 2.018302e-02) (0.000000e+00 0.000000e+00 0.000000e+00))
1.110000e-01	((8.464078e+02 -1.842328e+03 2.408008e-01) (1.141594e-01 3.736038e-02 2.549593e-04) (0.000000e+00 0.000000e+00 0.000000e+00)) ((-9.588893e-01 -6.215889e-01 -3.836324e+02) (1.527848e-04 -3.436404e-04 2.026619e-02) (0.000000e+00 0.000000e+00 0.000000e+00))