0.00025 	0.0199614 	1.15071e-05 	0
0.00075 	0.0598327 	5.06946e-05 	0
0.00125 	0.0995951 	0.000126669 	0
0.00175 	0.139233 	0.000242553 	0
0.00225 	0.178724 	0.000396308 	0
0.00275 	0.218037 	0.000586915 	0
0.00325 	0.257136 	0.000813709 	0
0.00375 	0.295977 	0.00107586 	0
0.00425 	0.33451 	0.00137231 	0
0.00475 	0.37268 	0.00170188 	0
0.00525 	0.410428 	0.00206316 	0
0.00575 	0.447686 	0.00245458 	0
0.00625 	0.484388 	0.00287436 	0
0.00675 	0.52046 	0.00332051 	0
0.00725 	0.55583 	0.00379082 	0
0.00775 	0.590422 	0.00428292 	0
0.00825 	0.62416 	0.0047942 	0
0.00875 	0.65697 	0.00532191 	0
0.00925 	0.688781 	0.00586313 	0
0.00975 	0.719522 	0.00641481 	0
0.01025 	0.749128 	0.00697382 	0
0.01075 	0.77754 	0.00753692 	0
0.01125 	0.804704 	0.00810088 	0
0.01175 	0.830572 	0.00866247 	0
0.01225 	0.855107 	0.00921851 	0
0.01275 	0.878278 	0.0097659 	0
0.01325 	0.900064 	0.0103017 	0
0.01375 	0.920452 	0.0108231 	0
0.01425 	0.939441 	0.0113276 	0
0.01475 	0.957037 	0.0118127 	0
0.01525 	0.973257 	0.0122766 	0
0.01575 	0.988126 	0.0127173 	0
0.01625 	1.00168 	0.0131335 	0
0.01675 	1.01395 	0.013524 	0
0.01725 	1.025 	0.013888 	0
0.01775 	1.03488 	0.014225 	0
0.01825 	1.04364 	0.0145347 	0
0.01875 	1.05135 	0.0148173 	0
0.01925 	1.05808 	0.0150732 	0
0.01975 	1.06389 	0.0153029 	0
0.02025 	1.06886 	0.0155073 	0
0.02075 	1.07304 	0.0156875 	0
0.02125 	1.07653 	0.0158446 	0
0.02175 	1.07937 	0.0159799 	0
0.02225 	1.08164 	0.0160948 	0
0.02275 	1.0834 	0.0161908 	0
0.02325 	1.0847 	0.0162694 	0
0.02375 	1.08561 	0.0163321 	0
0.02425 	1.08617 	0.0163803 	0
0.02475 	1.08644 	0.0164157 	0
0.02525 	1.08645 	0.0164395 	0
0.02575 	1.08625 	0.0164531 	0
0.02625 	1.08587 	0.0164578 	0
0.02675 	1.08534 	0.0164547 	0
0.02725 	1.0847 	0.016445 	0
0.02775 	1.08396 	0.0164296 	0
0.02825 	1.08315 	0.0164094 	0
0.02875 	1.08229 	0.0163852 	0
0.02925 	1.08139 	0.0163578 	0
0.02975 	1.08046 	0.0163278 	0
0.03025 	1.07952 	0.0162957 	0
0.03075 	1.07858 	0.016262 	0
0.03125 	1.07764 	0.0162271 	0
0.03175 	1.0767 	0.0161914 	0
0.03225 	1.07578 	0.016155 	0
0.03275 	1.07488 	0.0161184 	0
0.03325 	1.074 	0.0160816 	0
0.03375 	1.07314 	0.0160448 	0
0.03425 	1.0723 	0.0160082 	0
0.03475 	1.07148 	0.0159718 	0
0.03525 	1.07069 	0.0159357 	0
0.03575 	1.06992 	0.0159 	0
0.03625 	1.06917 	0.0158647 	0
0.03675 	1.06845 	0.0158298 	0
0.03725 	1.06774 	0.0157954 	0
0.03775 	1.06706 	0.0157613 	0
0.03825 	1.06641 	0.0157278 	0
0.03875 	1.06577 	0.0156946 	0
0.03925 	1.06515 	0.0156618 	0
0.03975 	1.06455 	0.0156295 	0
0.04025 	1.06396 	0.0155976 	0
0.04075 	1.0634 	0.015566 	0
0.04125 	1.06284 	0.0155348 	0
0.04175 	1.06231 	0.015504 	0
0.04225 	1.06179 	0.0154735 	0
0.04275 	1.06128 	0.0154433 	0
0.04325 	1.06079 	0.0154134 	0
0.04375 	1.06031 	0.0153838 	0
0.04425 	1.05985 	0.0153544 	0
0.04475 	1.05939 	0.0153253 	0
0.04525 	1.05895 	0.0152965 	0
0.04575 	1.05851 	0.0152679 	0
0.04625 	1.05809 	0.0152395 	0
0.04675 	1.05768 	0.0152113 	0
0.04725 	1.05728 	0.0151833 	0
0.04775 	1.05688 	0.0151555 	0
0.04825 	1.0565 	0.015128 	0
0.04875 	1.05613 	0.0151006 	0
0.04925 	1.05576 	0.0150733 	0
0.04975 	1.0554 	0.0150463 	0
0.05025 	1.05505 	0.0150194 	0
0.05075 	1.05471 	0.0149926 	0
0.05125 	1.05438 	0.014966 	0
0.05175 	1.05405 	0.0149395 	0
0.05225 	1.05373 	0.0149132 	0
0.05275 	1.05342 	0.014887 	0
0.05325 	1.05311 	0.0148609 	0
0.05375 	1.05281 	0.0148349 	0
0.05425 	1.05251 	0.0148091 	0
0.05475 	1.05222 	0.0147834 	0
0.05525 	1.05194 	0.0147578 	0
0.05575 	1.05166 	0.0147323 	0
0.05625 	1.05139 	0.0147069 	0
0.05675 	1.05113 	0.0146816 	0
0.05725 	1.05087 	0.0146564 	0
0.05775 	1.05061 	0.0146313 	0
0.05825 	1.05036 	0.0146063 	0
0.05875 	1.05011 	0.0145814 	0
0.05925 	1.04987 	0.0145566 	0
0.05975 	1.04964 	0.0145318 	0
0.06025 	1.04941 	0.0145072 	0
0.06075 	1.04918 	0.0144826 	0
0.06125 	1.04896 	0.0144581 	0
0.06175 	1.04874 	0.0144337 	0
0.06225 	1.04852 	0.0144094 	0
0.06275 	1.04831 	0.0143851 	0
0.06325 	1.04811 	0.0143609 	0
0.06375 	1.04791 	0.0143368 	0
0.06425 	1.04771 	0.0143128 	0
0.06475 	1.04751 	0.0142889 	0
0.06525 	1.04732 	0.014265 	0
0.06575 	1.04713 	0.0142411 	0
0.06625 	1.04695 	0.0142174 	0
0.06675 	1.04677 	0.0141937 	0
0.06725 	1.04659 	0.0141701 	0
0.06775 	1.04642 	0.0141465 	0
0.06825 	1.04625 	0.014123 	0
0.06875 	1.04609 	0.0140995 	0
0.06925 	1.04592 	0.0140761 	0
0.06975 	1.04576 	0.0140528 	0
0.07025 	1.04561 	0.0140295 	0
0.07075 	1.04545 	0.0140063 	0
0.07125 	1.0453 	0.0139832 	0
0.07175 	1.04515 	0.0139601 	0
0.07225 	1.04501 	0.0139371 	0
0.07275 	1.04487 	0.0139141 	0
0.07325 	1.04473 	0.0138912 	0
0.07375 	1.04459 	0.0138684 	0
0.07425 	1.04446 	0.0138455 	0
0.07475 	1.04433 	0.0138228 	0
0.07525 	1.0442 	0.0138001 	0
0.07575 	1.04408 	0.0137775 	0
0.07625 	1.04395 	0.0137549 	0
0.07675 	1.04383 	0.0137323 	0
0.07725 	1.04372 	0.0137098 	0
0.07775 	1.0436 	0.0136874 	0
0.07825 	1.04349 	0.013665 	0
0.07875 	1.04338 	0.0136426 	0
0.07925 	1.04327 	0.0136204 	0
0.07975 	1.04317 	0.0135981 	0
0.08025 	1.04307 	0.0135759 	0
0.08075 	1.04297 	0.0135538 	0
0.08125 	1.04287 	0.0135318 	0
0.08175 	1.04278 	0.0135097 	0
0.08225 	1.04268 	0.0134878 	0
0.08275 	1.04259 	0.0134658 	0
0.08325 	1.04251 	0.013444 	0
0.08375 	1.04242 	0.0134222 	0
0.08425 	1.04234 	0.0134004 	0
0.08475 	1.04226 	0.0133787 	0
0.08525 	1.04218 	0.013357 	0
0.08575 	1.0421 	0.0133354 	0
0.08625 	1.04203 	0.0133138 	0
0.08675 	1.04196 	0.0132923 	0
0.08725 	1.04189 	0.0132708 	0
0.08775 	1.04182 	0.0132494 	0
0.08825 	1.04176 	0.013228 	0
0.08875 	1.04169 	0.0132067 	0
0.08925 	1.04163 	0.0131854 	0
0.08975 	1.04157 	0.0131642 	0
0.09025 	1.04152 	0.0131431 	0
0.09075 	1.04146 	0.013122 	0
0.09125 	1.04141 	0.0131009 	0
0.09175 	1.04136 	0.0130799 	0
0.09225 	1.04131 	0.0130589 	0
0.09275 	1.04127 	0.013038 	0
0.09325 	1.04122 	0.0130171 	0
0.09375 	1.04118 	0.0129962 	0
0.09425 	1.04114 	0.0129754 	0
0.09475 	1.0411 	0.0129547 	0
0.09525 	1.04107 	0.0129339 	0
0.09575 	1.04103 	0.0129132 	0
0.09625 	1.041 	0.0128925 	0
0.09675 	1.04098 	0.0128719 	0
0.09725 	1.04095 	0.0128512 	0
0.09775 	1.04093 	0.0128307 	0
0.09825 	1.04091 	0.0128101 	0
0.09875 	1.0409 	0.0127888 	0
0.09925 	1.04089 	0.012767 	0
0.09975 	1.04089 	0.0127509 	0
