# Force coefficients
# liftDir    : (0.000000e+00 1.000000e+00 0.000000e+00)
# dragDir    : (1.000000e+00 0.000000e+00 0.000000e+00)
# pitchAxis  : (0.000000e+00 0.000000e+00 1.000000e+00)
# magUInf    : 5.148000e+01
# lRef       : 4.530000e-01
# Aref       : 4.348800e-01
# CofR       : (0.000000e+00 0.000000e+00 0.000000e+00)
# Time       	Cm           	Cd           	Cl           	Cl(f)        	Cl(r)        	Cm	Cd	Cl	Cl(f)	Cl(r)
1.000000e-03	-1.405318e-03	1.535210e-03	-2.367931e-03	-2.589284e-03	2.213527e-04
2.000000e-03	-5.361610e-03	6.038280e-03	-9.569852e-03	-1.014654e-02	5.766841e-04
3.000000e-03	-7.895254e-03	8.930037e-03	-1.482905e-02	-1.530978e-02	4.807285e-04
4.000000e-03	-8.344593e-03	9.435292e-03	-1.654766e-02	-1.661842e-02	7.076065e-05
5.000000e-03	-7.952443e-03	8.927525e-03	-1.689093e-02	-1.639791e-02	-4.930220e-04
6.000000e-03	-7.819653e-03	8.594333e-03	-1.775762e-02	-1.669846e-02	-1.059158e-03
7.000000e-03	-8.260782e-03	8.816214e-03	-1.956898e-02	-1.804527e-02	-1.523709e-03
8.000000e-03	-9.545957e-03	9.946007e-03	-2.284387e-02	-2.096789e-02	-1.875976e-03
9.000000e-03	-1.141578e-02	1.173879e-02	-2.715645e-02	-2.499400e-02	-2.162448e-03
1.000000e-02	-1.343378e-02	1.373125e-02	-3.171962e-02	-2.929359e-02	-2.426026e-03
1.100000e-02	-1.520619e-02	1.547811e-02	-3.588479e-02	-3.314859e-02	-2.736204e-03
1.200000e-02	-1.687130e-02	1.713147e-02	-3.988834e-02	-3.681547e-02	-3.072872e-03
1.300000e-02	-1.839983e-02	1.863312e-02	-4.373115e-02	-4.026541e-02	-3.465741e-03
1.400000e-02	-1.992170e-02	2.012212e-02	-4.760010e-02	-4.372175e-02	-3.878355e-03
1.500000e-02	-2.164197e-02	2.182214e-02	-5.188164e-02	-4.758279e-02	-4.298844e-03
1.600000e-02	-2.383124e-02	2.401331e-02	-5.716423e-02	-5.241335e-02	-4.750879e-03
1.700000e-02	-2.643628e-02	2.662112e-02	-6.338560e-02	-5.812908e-02	-5.256516e-03
1.800000e-02	-2.940330e-02	2.957757e-02	-7.049349e-02	-6.465005e-02	-5.843444e-03
1.900000e-02	-3.247285e-02	3.260316e-02	-7.799881e-02	-7.147226e-02	-6.526554e-03
2.000000e-02	-3.551980e-02	3.557120e-02	-8.559426e-02	-7.831693e-02	-7.277327e-03
2.100000e-02	-3.843239e-02	3.836124e-02	-9.302106e-02	-8.494292e-02	-8.078143e-03
2.200000e-02	-4.118085e-02	4.094744e-02	-1.001925e-01	-9.127711e-02	-8.915399e-03
2.300000e-02	-4.390984e-02	4.348534e-02	-1.073506e-01	-9.758513e-02	-9.765446e-03
2.400000e-02	-4.682742e-02	4.620944e-02	-1.148842e-01	-1.042695e-01	-1.061469e-02
2.500000e-02	-5.008941e-02	4.928866e-02	-1.231235e-01	-1.116511e-01	-1.147231e-02
2.600000e-02	-5.374586e-02	5.278886e-02	-1.321637e-01	-1.198277e-01	-1.233599e-02
2.700000e-02	-5.779894e-02	5.670371e-02	-1.420932e-01	-1.288456e-01	-1.324767e-02
2.800000e-02	-6.211435e-02	6.089976e-02	-1.526497e-01	-1.384392e-01	-1.421049e-02
2.900000e-02	-6.652976e-02	6.520767e-02	-1.635050e-01	-1.482823e-01	-1.522274e-02
3.000000e-02	-7.094953e-02	6.952929e-02	-1.744880e-01	-1.581935e-01	-1.629447e-02
3.100000e-02	-7.540977e-02	7.390036e-02	-1.856082e-01	-1.682139e-01	-1.739432e-02
3.200000e-02	-7.988930e-02	7.830928e-02	-1.967656e-01	-1.782721e-01	-1.849351e-02
3.300000e-02	-8.446826e-02	8.282467e-02	-2.081118e-01	-1.885241e-01	-1.958762e-02
3.400000e-02	-8.921818e-02	8.752924e-02	-2.197603e-01	-1.990983e-01	-2.066199e-02
3.500000e-02	-9.417479e-02	9.245777e-02	-2.318028e-01	-2.100762e-01	-2.172659e-02
3.600000e-02	-9.932817e-02	9.760715e-02	-2.442270e-01	-2.214417e-01	-2.278533e-02
3.700000e-02	-1.047204e-01	1.030113e-01	-2.571822e-01	-2.333115e-01	-2.387068e-02
3.800000e-02	-1.102827e-01	1.086047e-01	-2.704671e-01	-2.455163e-01	-2.495080e-02
3.900000e-02	-1.160175e-01	1.143842e-01	-2.841434e-01	-2.580892e-01	-2.605416e-02
4.000000e-02	-1.219139e-01	1.203296e-01	-2.981783e-01	-2.710031e-01	-2.717523e-02
4.100000e-02	-1.279297e-01	1.263926e-01	-3.124488e-01	-2.841541e-01	-2.829465e-02
4.200000e-02	-1.340400e-01	1.325455e-01	-3.268733e-01	-2.974767e-01	-2.939661e-02
4.300000e-02	-1.402628e-01	1.388129e-01	-3.414180e-01	-3.109718e-01	-3.044617e-02
4.400000e-02	-1.465170e-01	1.451208e-01	-3.558502e-01	-3.244421e-01	-3.140808e-02
4.500000e-02	-1.527858e-01	1.514583e-01	-3.700861e-01	-3.378288e-01	-3.225730e-02
4.600000e-02	-1.590728e-01	1.578284e-01	-3.841486e-01	-3.511471e-01	-3.300155e-02
4.700000e-02	-1.653772e-01	1.642340e-01	-3.980290e-01	-3.643917e-01	-3.363734e-02
4.800000e-02	-1.716168e-01	1.705971e-01	-4.115327e-01	-3.773832e-01	-3.414948e-02
4.900000e-02	-1.777736e-01	1.768883e-01	-4.246915e-01	-3.901194e-01	-3.457210e-02
5.000000e-02	-1.838058e-01	1.830781e-01	-4.373777e-01	-4.024946e-01	-3.488311e-02
5.100000e-02	-1.896126e-01	1.890721e-01	-4.494065e-01	-4.143158e-01	-3.509070e-02
5.200000e-02	-1.950778e-01	1.947648e-01	-4.604581e-01	-4.253069e-01	-3.515121e-02
5.300000e-02	-2.000838e-01	2.000494e-01	-4.702632e-01	-4.352154e-01	-3.504783e-02
5.400000e-02	-2.045647e-01	2.048680e-01	-4.786189e-01	-4.438741e-01	-3.474472e-02
5.500000e-02	-2.084757e-01	2.091764e-01	-4.854481e-01	-4.511998e-01	-3.424837e-02
5.600000e-02	-2.118477e-01	2.130210e-01	-4.907513e-01	-4.572233e-01	-3.352800e-02
5.700000e-02	-2.148804e-01	2.165966e-01	-4.949745e-01	-4.623677e-01	-3.260684e-02
5.800000e-02	-2.176330e-01	2.199596e-01	-4.982129e-01	-4.667394e-01	-3.147347e-02
5.900000e-02	-2.201293e-01	2.231129e-01	-5.006245e-01	-4.704416e-01	-3.018296e-02
6.000000e-02	-2.222883e-01	2.259625e-01	-5.021335e-01	-4.733551e-01	-2.877841e-02
6.100000e-02	-2.241820e-01	2.285567e-01	-5.029712e-01	-4.756676e-01	-2.730365e-02
6.200000e-02	-2.258389e-01	2.309086e-01	-5.032765e-01	-4.774772e-01	-2.579937e-02
6.300000e-02	-2.272664e-01	2.330172e-01	-5.030986e-01	-4.788157e-01	-2.428294e-02
6.400000e-02	-2.284899e-01	2.349063e-01	-5.025308e-01	-4.797553e-01	-2.277555e-02
6.500000e-02	-2.296677e-01	2.367180e-01	-5.019695e-01	-4.806524e-01	-2.131704e-02
6.600000e-02	-2.307516e-01	2.383934e-01	-5.013733e-01	-4.814382e-01	-1.993505e-02
6.700000e-02	-2.318767e-01	2.400533e-01	-5.010876e-01	-4.824205e-01	-1.866717e-02
6.800000e-02	-2.329883e-01	2.416555e-01	-5.010313e-01	-4.835040e-01	-1.752738e-02
6.900000e-02	-2.340859e-01	2.431829e-01	-5.012337e-01	-4.847028e-01	-1.653090e-02
7.000000e-02	-2.351502e-01	2.446145e-01	-5.016417e-01	-4.859710e-01	-1.567067e-02
7.100000e-02	-2.362047e-01	2.459788e-01	-5.022301e-01	-4.873198e-01	-1.491034e-02
7.200000e-02	-2.373177e-01	2.473608e-01	-5.031162e-01	-4.888758e-01	-1.424043e-02
7.300000e-02	-2.387021e-01	2.489503e-01	-5.047982e-01	-4.911012e-01	-1.369700e-02
7.400000e-02	-2.404984e-01	2.508495e-01	-5.076943e-01	-4.943455e-01	-1.334879e-02
7.500000e-02	-2.427703e-01	2.531698e-01	-5.119463e-01	-4.987434e-01	-1.320290e-02
7.600000e-02	-2.454151e-01	2.557704e-01	-5.174925e-01	-5.041614e-01	-1.333112e-02
7.700000e-02	-2.484453e-01	2.586966e-01	-5.242747e-01	-5.105827e-01	-1.369205e-02
7.800000e-02	-2.519065e-01	2.619917e-01	-5.322753e-01	-5.180441e-01	-1.423118e-02
7.900000e-02	-2.556059e-01	2.655013e-01	-5.408858e-01	-5.260488e-01	-1.483706e-02
8.000000e-02	-2.594262e-01	2.691427e-01	-5.496544e-01	-5.342534e-01	-1.540107e-02
8.100000e-02	-2.627778e-01	2.723039e-01	-5.577537e-01	-5.416546e-01	-1.609906e-02
8.200000e-02	-2.658148e-01	2.751499e-01	-5.655296e-01	-5.485796e-01	-1.695001e-02
8.300000e-02	-2.685228e-01	2.776378e-01	-5.733644e-01	-5.552050e-01	-1.815942e-02
8.400000e-02	-2.706683e-01	2.795548e-01	-5.806892e-01	-5.610129e-01	-1.967628e-02
8.500000e-02	-2.718972e-01	2.804656e-01	-5.871679e-01	-5.654812e-01	-2.168673e-02
8.600000e-02	-2.724960e-01	2.807283e-01	-5.927756e-01	-5.688838e-01	-2.389183e-02
8.700000e-02	-2.730121e-01	2.809002e-01	-5.984348e-01	-5.722295e-01	-2.620533e-02
8.800000e-02	-2.737482e-01	2.813266e-01	-6.042029e-01	-5.758497e-01	-2.835326e-02
8.900000e-02	-2.750626e-01	2.823554e-01	-6.108926e-01	-5.805089e-01	-3.038375e-02
9.000000e-02	-2.765532e-01	2.836208e-01	-6.174758e-01	-5.852910e-01	-3.218471e-02
9.100000e-02	-2.779902e-01	2.848110e-01	-6.239527e-01	-5.899665e-01	-3.398615e-02
9.200000e-02	-2.792451e-01	2.857830e-01	-6.298382e-01	-5.941642e-01	-3.567394e-02
9.300000e-02	-2.808608e-01	2.870317e-01	-6.363922e-01	-5.990570e-01	-3.733527e-02
9.400000e-02	-2.831831e-01	2.889429e-01	-6.440060e-01	-6.051861e-01	-3.881992e-02
9.500000e-02	-2.864996e-01	2.917968e-01	-6.534813e-01	-6.132403e-01	-4.024099e-02
9.600000e-02	-2.905569e-01	2.954297e-01	-6.639683e-01	-6.225410e-01	-4.142726e-02
9.700000e-02	-2.952778e-01	2.997677e-01	-6.756085e-01	-6.330821e-01	-4.252644e-02
9.800000e-02	-3.002480e-01	3.044248e-01	-6.874918e-01	-6.439939e-01	-4.349785e-02
9.900000e-02	-3.052617e-01	3.091607e-01	-6.995224e-01	-6.550228e-01	-4.449952e-02
1.000000e-01	-3.101905e-01	3.138858e-01	-7.112329e-01	-6.658070e-01	-4.542595e-02
1.010000e-01	-3.150496e-01	3.185705e-01	-7.229412e-01	-6.765201e-01	-4.642104e-02
1.020000e-01	-3.198213e-01	3.231970e-01	-7.344030e-01	-6.870228e-01	-4.738018e-02
1.030000e-01	-3.244550e-01	3.276367e-01	-7.458410e-01	-6.973755e-01	-4.846553e-02
1.040000e-01	-3.288094e-01	3.317684e-01	-7.568498e-01	-7.072343e-01	-4.961545e-02
1.050000e-01	-3.328610e-01	3.354939e-01	-7.676250e-01	-7.166735e-01	-5.095152e-02
1.060000e-01	-3.364806e-01	3.387437e-01	-7.776925e-01	-7.253268e-01	-5.236571e-02
1.070000e-01	-3.396881e-01	3.414990e-01	-7.872381e-01	-7.333072e-01	-5.393095e-02
1.080000e-01	-3.426079e-01	3.439529e-01	-7.962337e-01	-7.407248e-01	-5.550892e-02
1.090000e-01	-3.455213e-01	3.463623e-01	-8.052616e-01	-7.481521e-01	-5.710947e-02
1.100000e-01	-3.485835e-01	3.489524e-01	-8.143652e-01	-7.557661e-01	-5.859912e-02
1.110000e-01	-3.519432e-01	3.518440e-01	-8.239160e-01	-7.639012e-01	-6.001477e-02
1.120000e-01	-3.555509e-01	3.550099e-01	-8.336941e-01	-7.723980e-01	-6.129610e-02
1.130000e-01	-3.593856e-01	3.583789e-01	-8.438206e-01	-7.812959e-01	-6.252470e-02
1.140000e-01	-3.633863e-01	3.619228e-01	-8.540777e-01	-7.904251e-01	-6.365259e-02
1.150000e-01	-3.675235e-01	3.655575e-01	-8.645644e-01	-7.998057e-01	-6.475871e-02
1.160000e-01	-3.717543e-01	3.692762e-01	-8.750856e-01	-8.092971e-01	-6.578851e-02
1.170000e-01	-3.761688e-01	3.731450e-01	-8.858926e-01	-8.191151e-01	-6.677750e-02
1.180000e-01	-3.806927e-01	3.771236e-01	-8.967837e-01	-8.290846e-01	-6.769913e-02
1.190000e-01	-3.854045e-01	3.812805e-01	-9.079708e-01	-8.393900e-01	-6.858086e-02
1.200000e-01	-3.903310e-01	3.856892e-01	-9.193763e-01	-8.500192e-01	-6.935709e-02
1.210000e-01	-3.955512e-01	3.904199e-01	-9.312003e-01	-8.611514e-01	-7.004892e-02
1.220000e-01	-4.010776e-01	3.955035e-01	-9.433795e-01	-8.727673e-01	-7.061218e-02
1.230000e-01	-4.069008e-01	4.009321e-01	-9.559724e-01	-8.848870e-01	-7.108545e-02
1.240000e-01	-4.130393e-01	4.067196e-01	-9.689365e-01	-8.975076e-01	-7.142892e-02
1.250000e-01	-4.194816e-01	4.128556e-01	-9.822974e-01	-9.106303e-01	-7.166713e-02
1.260000e-01	-4.260425e-01	4.191131e-01	-9.957744e-01	-9.239297e-01	-7.184465e-02
1.270000e-01	-4.325885e-01	4.253598e-01	-1.009230e+00	-9.372037e-01	-7.202668e-02
1.280000e-01	-4.389596e-01	4.313887e-01	-1.022424e+00	-9.501715e-01	-7.225241e-02
1.290000e-01	-4.451248e-01	4.372101e-01	-1.035308e+00	-9.627790e-01	-7.252947e-02
1.300000e-01	-4.510659e-01	4.427706e-01	-1.047832e+00	-9.749821e-01	-7.285023e-02
1.310000e-01	-4.568698e-01	4.482276e-01	-1.060061e+00	-9.869002e-01	-7.316066e-02
1.320000e-01	-4.627384e-01	4.537490e-01	-1.072308e+00	-9.988926e-01	-7.341585e-02
1.330000e-01	-4.686031e-01	4.593083e-01	-1.084452e+00	-1.010829e+00	-7.362274e-02
1.340000e-01	-4.744092e-01	4.647743e-01	-1.096488e+00	-1.022653e+00	-7.383500e-02
1.350000e-01	-4.799866e-01	4.700063e-01	-1.108150e+00	-1.034062e+00	-7.408829e-02
1.360000e-01	-4.853112e-01	4.749118e-01	-1.119439e+00	-1.045031e+00	-7.440816e-02
1.370000e-01	-4.903083e-01	4.794826e-01	-1.130173e+00	-1.055395e+00	-7.477793e-02
1.380000e-01	-4.950538e-01	4.837624e-01	-1.140463e+00	-1.065286e+00	-7.517783e-02
1.390000e-01	-4.995671e-01	4.878300e-01	-1.150291e+00	-1.074713e+00	-7.557847e-02
1.400000e-01	-5.039525e-01	4.917674e-01	-1.159815e+00	-1.083860e+00	-7.595486e-02
1.410000e-01	-5.082993e-01	4.957109e-01	-1.169179e+00	-1.092889e+00	-7.629041e-02
1.420000e-01	-5.126083e-01	4.996227e-01	-1.178395e+00	-1.101806e+00	-7.658907e-02
1.430000e-01	-5.169013e-01	5.035409e-01	-1.187529e+00	-1.110666e+00	-7.686335e-02
1.440000e-01	-5.211318e-01	5.073915e-01	-1.196490e+00	-1.119377e+00	-7.711307e-02
1.450000e-01	-5.253370e-01	5.112215e-01	-1.205407e+00	-1.128041e+00	-7.736675e-02
1.460000e-01	-5.294442e-01	5.149398e-01	-1.214124e+00	-1.136506e+00	-7.761757e-02
1.470000e-01	-5.335102e-01	5.186113e-01	-1.222768e+00	-1.144894e+00	-7.787388e-02
1.480000e-01	-5.375004e-01	5.222114e-01	-1.231195e+00	-1.153098e+00	-7.809695e-02
1.490000e-01	-5.414476e-01	5.257741e-01	-1.239536e+00	-1.161216e+00	-7.832035e-02
1.500000e-01	-5.453060e-01	5.292592e-01	-1.247625e+00	-1.169118e+00	-7.850634e-02
1.510000e-01	-5.491585e-01	5.327462e-01	-1.255675e+00	-1.176996e+00	-7.867916e-02
1.520000e-01	-5.529537e-01	5.361960e-01	-1.263507e+00	-1.184707e+00	-7.879966e-02
1.530000e-01	-5.567637e-01	5.396695e-01	-1.271350e+00	-1.192439e+00	-7.891132e-02
1.540000e-01	-5.604585e-01	5.430433e-01	-1.278903e+00	-1.199910e+00	-7.899319e-02
1.550000e-01	-5.641363e-01	5.463972e-01	-1.286444e+00	-1.207358e+00	-7.908555e-02
1.560000e-01	-5.676982e-01	5.496436e-01	-1.293700e+00	-1.214548e+00	-7.915201e-02
1.570000e-01	-5.712763e-01	5.529022e-01	-1.301004e+00	-1.221778e+00	-7.922553e-02
1.580000e-01	-5.747684e-01	5.560861e-01	-1.308063e+00	-1.228800e+00	-7.926296e-02
1.590000e-01	-5.782964e-01	5.593069e-01	-1.315195e+00	-1.235894e+00	-7.930096e-02
1.600000e-01	-5.817455e-01	5.624682e-01	-1.322091e+00	-1.242791e+00	-7.929980e-02
1.610000e-01	-5.852138e-01	5.656469e-01	-1.329042e+00	-1.249735e+00	-7.930718e-02
1.620000e-01	-5.885848e-01	5.687453e-01	-1.335740e+00	-1.256455e+00	-7.928526e-02
1.630000e-01	-5.919666e-01	5.718503e-01	-1.342501e+00	-1.263217e+00	-7.928386e-02
1.640000e-01	-5.952373e-01	5.748617e-01	-1.348996e+00	-1.269735e+00	-7.926075e-02
1.650000e-01	-5.985003e-01	5.778592e-01	-1.355530e+00	-1.276265e+00	-7.926472e-02
1.660000e-01	-6.016490e-01	5.807581e-01	-1.361791e+00	-1.282545e+00	-7.924653e-02
1.670000e-01	-6.047894e-01	5.836443e-01	-1.368077e+00	-1.288828e+00	-7.924927e-02
1.680000e-01	-6.078216e-01	5.864408e-01	-1.374092e+00	-1.294867e+00	-7.922425e-02
1.690000e-01	-6.108460e-01	5.892218e-01	-1.380132e+00	-1.300912e+00	-7.922020e-02
1.700000e-01	-6.137567e-01	5.919070e-01	-1.385891e+00	-1.306702e+00	-7.918902e-02
1.710000e-01	-6.166612e-01	5.945780e-01	-1.391682e+00	-1.312502e+00	-7.917965e-02
1.720000e-01	-6.194605e-01	5.971617e-01	-1.397223e+00	-1.318072e+00	-7.915105e-02
1.730000e-01	-6.222592e-01	5.997360e-01	-1.402809e+00	-1.323664e+00	-7.914522e-02
1.740000e-01	-6.249618e-01	6.022333e-01	-1.408162e+00	-1.329043e+00	-7.911909e-02
1.750000e-01	-6.276760e-01	6.047338e-01	-1.413575e+00	-1.334463e+00	-7.911139e-02
1.760000e-01	-6.302994e-01	6.071612e-01	-1.418758e+00	-1.339678e+00	-7.907938e-02
1.770000e-01	-6.329302e-01	6.095877e-01	-1.423987e+00	-1.344923e+00	-7.906300e-02
1.780000e-01	-6.354724e-01	6.119392e-01	-1.428992e+00	-1.349968e+00	-7.902352e-02
1.790000e-01	-6.380199e-01	6.142896e-01	-1.434043e+00	-1.355042e+00	-7.900171e-02
1.800000e-01	-6.404690e-01	6.165561e-01	-1.438864e+00	-1.359901e+00	-7.896271e-02
1.810000e-01	-6.429206e-01	6.188214e-01	-1.443721e+00	-1.364781e+00	-7.894014e-02
1.820000e-01	-6.452779e-01	6.210055e-01	-1.448357e+00	-1.369456e+00	-7.890036e-02
1.830000e-01	-6.476402e-01	6.231909e-01	-1.453027e+00	-1.374154e+00	-7.887330e-02
1.840000e-01	-6.499185e-01	6.253023e-01	-1.457495e+00	-1.378666e+00	-7.882887e-02
1.850000e-01	-6.522045e-01	6.274192e-01	-1.462002e+00	-1.383206e+00	-7.879666e-02
1.860000e-01	-6.544035e-01	6.294592e-01	-1.466313e+00	-1.387560e+00	-7.875325e-02
1.870000e-01	-6.566111e-01	6.315056e-01	-1.470664e+00	-1.391943e+00	-7.872101e-02
1.880000e-01	-6.587426e-01	6.334853e-01	-1.474838e+00	-1.396162e+00	-7.867658e-02
1.890000e-01	-6.608837e-01	6.354743e-01	-1.479046e+00	-1.400407e+00	-7.863914e-02
1.900000e-01	-6.629476e-01	6.373938e-01	-1.483078e+00	-1.404487e+00	-7.859149e-02
1.910000e-01	-6.650133e-01	6.393167e-01	-1.487123e+00	-1.408575e+00	-7.854826e-02
1.920000e-01	-6.670000e-01	6.411661e-01	-1.490995e+00	-1.412498e+00	-7.849765e-02
1.930000e-01	-6.689946e-01	6.430232e-01	-1.494890e+00	-1.416439e+00	-7.845037e-02
1.940000e-01	-6.709036e-01	6.447977e-01	-1.498606e+00	-1.420207e+00	-7.839947e-02
1.950000e-01	-6.728231e-01	6.465837e-01	-1.502349e+00	-1.423998e+00	-7.835147e-02
1.960000e-01	-6.746560e-01	6.482842e-01	-1.505929e+00	-1.427621e+00	-7.830868e-02
1.970000e-01	-6.764924e-01	6.499937e-01	-1.509524e+00	-1.431255e+00	-7.826962e-02
1.980000e-01	-6.782469e-01	6.516260e-01	-1.512955e+00	-1.434725e+00	-7.823066e-02
1.990000e-01	-6.800117e-01	6.532732e-01	-1.516404e+00	-1.438214e+00	-7.819004e-02
2.000000e-01	-6.817033e-01	6.548526e-01	-1.519700e+00	-1.441553e+00	-7.814691e-02
2.010000e-01	-6.834051e-01	6.564436e-01	-1.523015e+00	-1.444913e+00	-7.810258e-02
2.020000e-01	-6.850286e-01	6.579574e-01	-1.526171e+00	-1.448114e+00	-7.805719e-02
2.030000e-01	-6.866648e-01	6.594848e-01	-1.529354e+00	-1.451342e+00	-7.801228e-02
2.040000e-01	-6.882127e-01	6.609271e-01	-1.532364e+00	-1.454395e+00	-7.796910e-02
2.050000e-01	-6.897828e-01	6.623942e-01	-1.535412e+00	-1.457489e+00	-7.792332e-02
2.060000e-01	-6.912748e-01	6.637842e-01	-1.538314e+00	-1.460432e+00	-7.788240e-02
2.070000e-01	-6.927890e-01	6.651984e-01	-1.541262e+00	-1.463420e+00	-7.784180e-02
2.080000e-01	-6.942275e-01	6.665391e-01	-1.544059e+00	-1.466257e+00	-7.780197e-02
2.090000e-01	-6.956852e-01	6.679009e-01	-1.546895e+00	-1.469133e+00	-7.776209e-02
2.100000e-01	-6.970682e-01	6.691885e-01	-1.549582e+00	-1.471859e+00	-7.772265e-02
2.110000e-01	-6.984713e-01	6.705010e-01	-1.552297e+00	-1.474620e+00	-7.767724e-02
2.120000e-01	-6.997901e-01	6.717305e-01	-1.554851e+00	-1.477216e+00	-7.763541e-02
2.130000e-01	-7.011380e-01	6.729953e-01	-1.557454e+00	-1.479865e+00	-7.758874e-02
2.140000e-01	-7.024107e-01	6.741840e-01	-1.559913e+00	-1.482367e+00	-7.754598e-02
2.150000e-01	-7.037162e-01	6.754113e-01	-1.562433e+00	-1.484933e+00	-7.750031e-02
2.160000e-01	-7.049334e-01	6.765483e-01	-1.564791e+00	-1.487329e+00	-7.746238e-02
2.170000e-01	-7.061896e-01	6.777309e-01	-1.567209e+00	-1.489794e+00	-7.741513e-02
2.180000e-01	-7.073563e-01	6.788206e-01	-1.569458e+00	-1.492085e+00	-7.737293e-02
2.190000e-01	-7.085596e-01	6.799535e-01	-1.571764e+00	-1.494442e+00	-7.732236e-02
2.200000e-01	-7.096774e-01	6.809969e-01	-1.573919e+00	-1.496637e+00	-7.728190e-02
2.210000e-01	-7.108367e-01	6.820889e-01	-1.576143e+00	-1.498908e+00	-7.723461e-02
2.220000e-01	-7.119185e-01	6.830981e-01	-1.578227e+00	-1.501032e+00	-7.719511e-02
2.230000e-01	-7.130421e-01	6.841573e-01	-1.580370e+00	-1.503227e+00	-7.714307e-02
2.240000e-01	-7.140853e-01	6.851324e-01	-1.582361e+00	-1.505266e+00	-7.709522e-02
2.250000e-01	-7.151548e-01	6.861427e-01	-1.584396e+00	-1.507353e+00	-7.704300e-02
2.260000e-01	-7.161353e-01	6.870592e-01	-1.586278e+00	-1.509274e+00	-7.700370e-02
2.270000e-01	-7.171578e-01	6.880256e-01	-1.588237e+00	-1.511276e+00	-7.696053e-02
2.280000e-01	-7.181106e-01	6.889171e-01	-1.590070e+00	-1.513145e+00	-7.692431e-02
2.290000e-01	-7.191069e-01	6.898599e-01	-1.591970e+00	-1.515092e+00	-7.687814e-02
2.300000e-01	-7.200206e-01	6.907148e-01	-1.593726e+00	-1.516884e+00	-7.684254e-02
2.310000e-01	-7.209753e-01	6.916192e-01	-1.595546e+00	-1.518748e+00	-7.679767e-02
2.320000e-01	-7.218534e-01	6.924417e-01	-1.597232e+00	-1.520469e+00	-7.676257e-02
2.330000e-01	-7.227630e-01	6.933052e-01	-1.598968e+00	-1.522247e+00	-7.672101e-02
2.340000e-01	-7.235957e-01	6.940845e-01	-1.600571e+00	-1.523881e+00	-7.668978e-02
2.350000e-01	-7.244711e-01	6.949154e-01	-1.602241e+00	-1.525591e+00	-7.664930e-02
2.360000e-01	-7.252621e-01	6.956546e-01	-1.603766e+00	-1.527145e+00	-7.662084e-02
2.370000e-01	-7.261003e-01	6.964493e-01	-1.605370e+00	-1.528786e+00	-7.658483e-02
2.380000e-01	-7.268592e-01	6.971592e-01	-1.606834e+00	-1.530276e+00	-7.655773e-02
2.390000e-01	-7.276730e-01	6.979349e-01	-1.608376e+00	-1.531861e+00	-7.651482e-02
2.400000e-01	-7.284114e-01	6.986280e-01	-1.609789e+00	-1.533306e+00	-7.648301e-02
2.410000e-01	-7.291900e-01	6.993700e-01	-1.611261e+00	-1.534821e+00	-7.644072e-02
2.420000e-01	-7.298912e-01	7.000281e-01	-1.612607e+00	-1.536195e+00	-7.641210e-02
2.430000e-01	-7.306370e-01	7.007400e-01	-1.614022e+00	-1.537648e+00	-7.637391e-02
2.440000e-01	-7.312990e-01	7.013597e-01	-1.615296e+00	-1.538947e+00	-7.634903e-02
2.450000e-01	-7.320112e-01	7.020384e-01	-1.616651e+00	-1.540337e+00	-7.631448e-02
2.460000e-01	-7.326408e-01	7.026270e-01	-1.617872e+00	-1.541577e+00	-7.629495e-02
2.470000e-01	-7.333275e-01	7.032836e-01	-1.619172e+00	-1.542914e+00	-7.625865e-02
2.480000e-01	-7.339358e-01	7.038538e-01	-1.620344e+00	-1.544108e+00	-7.623597e-02
2.490000e-01	-7.345940e-01	7.044831e-01	-1.621592e+00	-1.545390e+00	-7.620196e-02
2.500000e-01	-7.351811e-01	7.050340e-01	-1.622722e+00	-1.546542e+00	-7.617988e-02
2.510000e-01	-7.358046e-01	7.056299e-01	-1.623902e+00	-1.547756e+00	-7.614661e-02
2.520000e-01	-7.363493e-01	7.061367e-01	-1.624963e+00	-1.548831e+00	-7.613196e-02
2.530000e-01	-7.369451e-01	7.067044e-01	-1.626098e+00	-1.549994e+00	-7.610404e-02
2.540000e-01	-7.374730e-01	7.071981e-01	-1.627114e+00	-1.551030e+00	-7.608414e-02
2.550000e-01	-7.380549e-01	7.077557e-01	-1.628211e+00	-1.552160e+00	-7.605057e-02
2.560000e-01	-7.385569e-01	7.082254e-01	-1.629178e+00	-1.553146e+00	-7.603223e-02
2.570000e-01	-7.391177e-01	7.087639e-01	-1.630231e+00	-1.554233e+00	-7.599767e-02
2.580000e-01	-7.395904e-01	7.092054e-01	-1.631156e+00	-1.555168e+00	-7.598733e-02
2.590000e-01	-7.401251e-01	7.097170e-01	-1.632169e+00	-1.556210e+00	-7.595938e-02
2.600000e-01	-7.405823e-01	7.101429e-01	-1.633060e+00	-1.557112e+00	-7.594782e-02
2.610000e-01	-7.410837e-01	7.106208e-01	-1.634016e+00	-1.558092e+00	-7.592411e-02
2.620000e-01	-7.415192e-01	7.110271e-01	-1.634862e+00	-1.558950e+00	-7.591167e-02
2.630000e-01	-7.420044e-01	7.114923e-01	-1.635779e+00	-1.559894e+00	-7.588501e-02
2.640000e-01	-7.424143e-01	7.118747e-01	-1.636578e+00	-1.560703e+00	-7.587459e-02
2.650000e-01	-7.428874e-01	7.123278e-01	-1.637471e+00	-1.561623e+00	-7.584821e-02
2.660000e-01	-7.432948e-01	7.127085e-01	-1.638259e+00	-1.562424e+00	-7.583446e-02
2.670000e-01	-7.437481e-01	7.131427e-01	-1.639112e+00	-1.563304e+00	-7.580796e-02
2.680000e-01	-7.441147e-01	7.134819e-01	-1.639836e+00	-1.564033e+00	-7.580321e-02
2.690000e-01	-7.445332e-01	7.138815e-01	-1.640626e+00	-1.564846e+00	-7.577957e-02
2.700000e-01	-7.448890e-01	7.142130e-01	-1.641321e+00	-1.565550e+00	-7.577171e-02
2.710000e-01	-7.452951e-01	7.146037e-01	-1.642090e+00	-1.566340e+00	-7.574992e-02
2.720000e-01	-7.456391e-01	7.149234e-01	-1.642765e+00	-1.567022e+00	-7.574335e-02
2.730000e-01	-7.460412e-01	7.153086e-01	-1.643526e+00	-1.567804e+00	-7.572186e-02
2.740000e-01	-7.463656e-01	7.156094e-01	-1.644160e+00	-1.568445e+00	-7.571433e-02
2.750000e-01	-7.467531e-01	7.159825e-01	-1.644890e+00	-1.569198e+00	-7.569175e-02
2.760000e-01	-7.470519e-01	7.162597e-01	-1.645478e+00	-1.569791e+00	-7.568689e-02
2.770000e-01	-7.474005e-01	7.165940e-01	-1.646136e+00	-1.570469e+00	-7.566765e-02
2.780000e-01	-7.476964e-01	7.168667e-01	-1.646723e+00	-1.571058e+00	-7.566493e-02
2.790000e-01	-7.480505e-01	7.172078e-01	-1.647388e+00	-1.571744e+00	-7.564354e-02
2.800000e-01	-7.483474e-01	7.174848e-01	-1.647965e+00	-1.572330e+00	-7.563516e-02
2.810000e-01	-7.486948e-01	7.178199e-01	-1.648611e+00	-1.573001e+00	-7.561083e-02
2.820000e-01	-7.489575e-01	7.180639e-01	-1.649122e+00	-1.573519e+00	-7.560361e-02
2.830000e-01	-7.492658e-01	7.183624e-01	-1.649703e+00	-1.574117e+00	-7.558572e-02
2.840000e-01	-7.495077e-01	7.185851e-01	-1.650190e+00	-1.574603e+00	-7.558722e-02
2.850000e-01	-7.498153e-01	7.188809e-01	-1.650776e+00	-1.575203e+00	-7.557270e-02
2.860000e-01	-7.500569e-01	7.191033e-01	-1.651252e+00	-1.575683e+00	-7.556919e-02
2.870000e-01	-7.503570e-01	7.193928e-01	-1.651810e+00	-1.576262e+00	-7.554804e-02
2.880000e-01	-7.505785e-01	7.195991e-01	-1.652248e+00	-1.576702e+00	-7.554541e-02
2.890000e-01	-7.508608e-01	7.198734e-01	-1.652777e+00	-1.577249e+00	-7.552746e-02
2.900000e-01	-7.510802e-01	7.200764e-01	-1.653212e+00	-1.577686e+00	-7.552566e-02
2.910000e-01	-7.513635e-01	7.203511e-01	-1.653733e+00	-1.578230e+00	-7.550310e-02
2.920000e-01	-7.515770e-01	7.205479e-01	-1.654151e+00	-1.578652e+00	-7.549827e-02
2.930000e-01	-7.518425e-01	7.208038e-01	-1.654649e+00	-1.579167e+00	-7.548215e-02
2.940000e-01	-7.520315e-01	7.209781e-01	-1.655027e+00	-1.579545e+00	-7.548215e-02
2.950000e-01	-7.522825e-01	7.212212e-01	-1.655501e+00	-1.580033e+00	-7.546816e-02
2.960000e-01	-7.524745e-01	7.213979e-01	-1.655878e+00	-1.580413e+00	-7.546453e-02
2.970000e-01	-7.527167e-01	7.216331e-01	-1.656320e+00	-1.580877e+00	-7.544347e-02
2.980000e-01	-7.528828e-01	7.217851e-01	-1.656657e+00	-1.581211e+00	-7.544547e-02
2.990000e-01	-7.531107e-01	7.220063e-01	-1.657090e+00	-1.581656e+00	-7.543426e-02
3.000000e-01	-7.532742e-01	7.221571e-01	-1.657419e+00	-1.581984e+00	-7.543552e-02
3.010000e-01	-7.535107e-01	7.223861e-01	-1.657849e+00	-1.582435e+00	-7.541367e-02
3.020000e-01	-7.536784e-01	7.225400e-01	-1.658171e+00	-1.582764e+00	-7.540708e-02
3.030000e-01	-7.539015e-01	7.227580e-01	-1.658576e+00	-1.583190e+00	-7.538669e-02
3.040000e-01	-7.540473e-01	7.228924e-01	-1.658869e+00	-1.583482e+00	-7.538723e-02
3.050000e-01	-7.542519e-01	7.230910e-01	-1.659254e+00	-1.583879e+00	-7.537506e-02
3.060000e-01	-7.544004e-01	7.232277e-01	-1.659544e+00	-1.584172e+00	-7.537157e-02
3.070000e-01	-7.546108e-01	7.234321e-01	-1.659926e+00	-1.584574e+00	-7.535232e-02
3.080000e-01	-7.547418e-01	7.235504e-01	-1.660195e+00	-1.584839e+00	-7.535548e-02
3.090000e-01	-7.549311e-01	7.237363e-01	-1.660541e+00	-1.585202e+00	-7.533965e-02
3.100000e-01	-7.550458e-01	7.238426e-01	-1.660780e+00	-1.585436e+00	-7.534421e-02
3.110000e-01	-7.552335e-01	7.240275e-01	-1.661125e+00	-1.585796e+00	-7.532913e-02
3.120000e-01	-7.553412e-01	7.241249e-01	-1.661347e+00	-1.586015e+00	-7.533244e-02
3.130000e-01	-7.555245e-01	7.243019e-01	-1.661691e+00	-1.586370e+00	-7.532091e-02
3.140000e-01	-7.556567e-01	7.244237e-01	-1.661949e+00	-1.586631e+00	-7.531770e-02
3.150000e-01	-7.558544e-01	7.246206e-01	-1.662301e+00	-1.587005e+00	-7.529624e-02
3.160000e-01	-7.559717e-01	7.247287e-01	-1.662530e+00	-1.587237e+00	-7.529348e-02
3.170000e-01	-7.561294e-01	7.248797e-01	-1.662821e+00	-1.587540e+00	-7.528116e-02
3.180000e-01	-7.562015e-01	7.249415e-01	-1.662986e+00	-1.587694e+00	-7.529150e-02
3.190000e-01	-7.563473e-01	7.250841e-01	-1.663261e+00	-1.587978e+00	-7.528308e-02
3.200000e-01	-7.564505e-01	7.251790e-01	-1.663475e+00	-1.588188e+00	-7.528680e-02
3.210000e-01	-7.566135e-01	7.253417e-01	-1.663767e+00	-1.588497e+00	-7.526986e-02
3.220000e-01	-7.567211e-01	7.254410e-01	-1.663974e+00	-1.588708e+00	-7.526588e-02
3.230000e-01	-7.568837e-01	7.256008e-01	-1.664263e+00	-1.589015e+00	-7.524798e-02
3.240000e-01	-7.569663e-01	7.256744e-01	-1.664433e+00	-1.589183e+00	-7.525020e-02
3.250000e-01	-7.571050e-01	7.258112e-01	-1.664692e+00	-1.589451e+00	-7.524098e-02
3.260000e-01	-7.571839e-01	7.258804e-01	-1.664861e+00	-1.589615e+00	-7.524686e-02
3.270000e-01	-7.573180e-01	7.260119e-01	-1.665105e+00	-1.589870e+00	-7.523439e-02
3.280000e-01	-7.573933e-01	7.260791e-01	-1.665264e+00	-1.590025e+00	-7.523854e-02
3.290000e-01	-7.575315e-01	7.262146e-01	-1.665513e+00	-1.590288e+00	-7.522482e-02
3.300000e-01	-7.576058e-01	7.262834e-01	-1.665661e+00	-1.590436e+00	-7.522452e-02
3.310000e-01	-7.577376e-01	7.264146e-01	-1.665900e+00	-1.590687e+00	-7.521227e-02
3.320000e-01	-7.578100e-01	7.264781e-01	-1.666048e+00	-1.590834e+00	-7.521400e-02
3.330000e-01	-7.579311e-01	7.265995e-01	-1.666268e+00	-1.591065e+00	-7.520302e-02
3.340000e-01	-7.579943e-01	7.266541e-01	-1.666406e+00	-1.591198e+00	-7.520894e-02
3.350000e-01	-7.581097e-01	7.267669e-01	-1.666620e+00	-1.591419e+00	-7.520010e-02
3.360000e-01	-7.581713e-01	7.268220e-01	-1.666744e+00	-1.591543e+00	-7.520060e-02
3.370000e-01	-7.582884e-01	7.269381e-01	-1.666953e+00	-1.591765e+00	-7.518815e-02
3.380000e-01	-7.583600e-01	7.270032e-01	-1.667095e+00	-1.591908e+00	-7.518751e-02
3.390000e-01	-7.584747e-01	7.271193e-01	-1.667299e+00	-1.592124e+00	-7.517473e-02
3.400000e-01	-7.585257e-01	7.271634e-01	-1.667415e+00	-1.592233e+00	-7.518172e-02
3.410000e-01	-7.586329e-01	7.272693e-01	-1.667612e+00	-1.592439e+00	-7.517312e-02
3.420000e-01	-7.586746e-01	7.273033e-01	-1.667703e+00	-1.592526e+00	-7.517680e-02
3.430000e-01	-7.587846e-01	7.274122e-01	-1.667896e+00	-1.592733e+00	-7.516344e-02
3.440000e-01	-7.588342e-01	7.274554e-01	-1.668007e+00	-1.592838e+00	-7.516915e-02
3.450000e-01	-7.589285e-01	7.275500e-01	-1.668178e+00	-1.593017e+00	-7.516031e-02
3.460000e-01	-7.589783e-01	7.275956e-01	-1.668281e+00	-1.593119e+00	-7.516199e-02
3.470000e-01	-7.590927e-01	7.277111e-01	-1.668476e+00	-1.593331e+00	-7.514549e-02
3.480000e-01	-7.591277e-01	7.277405e-01	-1.668558e+00	-1.593406e+00	-7.515114e-02
3.490000e-01	-7.592210e-01	7.278319e-01	-1.668725e+00	-1.593583e+00	-7.514144e-02
3.500000e-01	-7.592662e-01	7.278677e-01	-1.668825e+00	-1.593679e+00	-7.514654e-02
3.510000e-01	-7.593555e-01	7.279573e-01	-1.668984e+00	-1.593848e+00	-7.513674e-02
3.520000e-01	-7.593786e-01	7.279743e-01	-1.669048e+00	-1.593902e+00	-7.514531e-02
3.530000e-01	-7.594648e-01	7.280615e-01	-1.669198e+00	-1.594064e+00	-7.513406e-02
3.540000e-01	-7.595009e-01	7.280954e-01	-1.669270e+00	-1.594136e+00	-7.513410e-02
3.550000e-01	-7.595984e-01	7.281955e-01	-1.669439e+00	-1.594318e+00	-7.512099e-02
3.560000e-01	-7.596344e-01	7.282248e-01	-1.669524e+00	-1.594396e+00	-7.512766e-02
3.570000e-01	-7.597041e-01	7.282940e-01	-1.669646e+00	-1.594527e+00	-7.511909e-02
3.580000e-01	-7.597181e-01	7.283002e-01	-1.669697e+00	-1.594567e+00	-7.513049e-02
3.590000e-01	-7.598055e-01	7.283868e-01	-1.669854e+00	-1.594733e+00	-7.512174e-02
3.600000e-01	-7.598406e-01	7.284174e-01	-1.669928e+00	-1.594804e+00	-7.512327e-02