0.0005 	2.50266 	-2.5797e-09 	3.01956e-11
0.0015 	2.51235 	-1.01756e-08 	1.11545e-10
0.0025 	2.53043 	-1.44073e-08 	1.50934e-10
0.0035 	2.5553 	-1.72467e-08 	1.76256e-10
0.0045 	2.58471 	-1.87774e-08 	1.89374e-10
0.0055 	2.61646 	-1.93739e-08 	1.93886e-10
0.0065 	2.64908 	-1.93425e-08 	1.92556e-10
0.0075 	2.68162 	-1.88916e-08 	1.87398e-10
0.0085 	2.7134 	-1.81921e-08 	1.80064e-10
0.0095 	2.74405 	-1.73756e-08 	1.71763e-10
0.0105 	2.77339 	-1.65259e-08 	1.63247e-10
0.0115 	2.80137 	-1.56918e-08 	1.54954e-10
0.0125 	2.82802 	-1.4901e-08 	1.47134e-10
0.0135 	2.85341 	-1.41678e-08 	1.39904e-10
0.0145 	2.87763 	-1.34966e-08 	1.33298e-10
0.0155 	2.90079 	-1.28868e-08 	1.273e-10
0.0165 	2.92298 	-1.23346e-08 	1.2187e-10
0.0175 	2.9443 	-1.1835e-08 	1.16954e-10
0.0185 	2.96482 	-1.13824e-08 	1.12499e-10
0.0195 	2.98464 	-1.09715e-08 	1.0845e-10
0.0205 	3.00381 	-1.05971e-08 	1.04758e-10
0.0215 	3.02239 	-1.02548e-08 	1.01379e-10
0.0225 	3.04043 	-9.94052e-09 	9.82728e-11
0.0235 	3.05799 	-9.65083e-09 	9.54064e-11
0.0245 	3.07509 	-9.38267e-09 	9.27503e-11
0.0255 	3.09178 	-9.13351e-09 	9.02797e-11
0.0265 	3.10808 	-8.90112e-09 	8.79731e-11
0.0275 	3.12402 	-8.68363e-09 	8.58122e-11
0.0285 	3.13962 	-8.47941e-09 	8.37813e-11
0.0295 	3.15492 	-8.28705e-09 	8.18668e-11
0.0305 	3.16991 	-8.10536e-09 	8.00572e-11
0.0315 	3.18463 	-7.93333e-09 	7.83426e-11
0.0325 	3.19909 	-7.77007e-09 	7.67141e-11
0.0335 	3.2133 	-7.61483e-09 	7.51643e-11
0.0345 	3.22728 	-7.46685e-09 	7.36864e-11
0.0355 	3.24103 	-7.32559e-09 	7.22746e-11
0.0365 	3.25457 	-7.19049e-09 	7.09237e-11
0.0375 	3.2679 	-7.06109e-09 	6.96292e-11
0.0385 	3.28105 	-6.93702e-09 	6.8387e-11
0.0395 	3.29401 	-6.8178e-09 	6.71932e-11
0.0405 	3.30679 	-6.70318e-09 	6.60447e-11
0.0415 	3.3194 	-6.59285e-09 	6.49385e-11
0.0425 	3.33184 	-6.48648e-09 	6.38716e-11
0.0435 	3.34413 	-6.38383e-09 	6.28418e-11
0.0445 	3.35627 	-6.28472e-09 	6.18468e-11
0.0455 	3.36826 	-6.18887e-09 	6.08843e-11
0.0465 	3.38011 	-6.09613e-09 	5.99524e-11
0.0475 	3.39183 	-6.0063e-09 	5.90497e-11
0.0485 	3.40342 	-5.91924e-09 	5.81742e-11
0.0495 	3.41487 	-5.83476e-09 	5.73245e-11
0.0505 	3.42621 	-5.75275e-09 	5.64992e-11
0.0515 	3.43743 	-5.67305e-09 	5.56969e-11
0.0525 	3.44853 	-5.59555e-09 	5.49165e-11
0.0535 	3.45952 	-5.52014e-09 	5.41568e-11
0.0545 	3.47041 	-5.44669e-09 	5.34167e-11
0.0555 	3.48119 	-5.37513e-09 	5.26953e-11
0.0565 	3.49186 	-5.30534e-09 	5.19915e-11
0.0575 	3.50244 	-5.23724e-09 	5.13046e-11
0.0585 	3.51292 	-5.17075e-09 	5.06336e-11
0.0595 	3.52331 	-5.10579e-09 	4.99779e-11
0.0605 	3.5336 	-5.04228e-09 	4.93366e-11
0.0615 	3.5438 	-4.98015e-09 	4.87092e-11
0.0625 	3.55392 	-4.91935e-09 	4.80949e-11
0.0635 	3.56395 	-4.85979e-09 	4.74931e-11
0.0645 	3.5739 	-4.80144e-09 	4.69033e-11
0.0655 	3.58376 	-4.74422e-09 	4.63249e-11
0.0665 	3.59355 	-4.68811e-09 	4.57574e-11
0.0675 	3.60325 	-4.63303e-09 	4.52004e-11
0.0685 	3.61288 	-4.57896e-09 	4.46533e-11
0.0695 	3.62244 	-4.52583e-09 	4.41157e-11
0.0705 	3.63192 	-4.47362e-09 	4.35873e-11
0.0715 	3.64133 	-4.42229e-09 	4.30678e-11
0.0725 	3.65067 	-4.37179e-09 	4.25566e-11
0.0735 	3.65993 	-4.3221e-09 	4.20535e-11
0.0745 	3.66913 	-4.27319e-09 	4.15582e-11
0.0755 	3.67825 	-4.22501e-09 	4.10704e-11
0.0765 	3.68732 	-4.17754e-09 	4.05896e-11
0.0775 	3.69631 	-4.13076e-09 	4.01158e-11
0.0785 	3.70524 	-4.08463e-09 	3.96486e-11
0.0795 	3.71411 	-4.03914e-09 	3.91878e-11
0.0805 	3.72291 	-3.99427e-09 	3.87332e-11
0.0815 	3.73166 	-3.94998e-09 	3.82845e-11
0.0825 	3.74033 	-3.90626e-09 	3.78416e-11
0.0835 	3.74895 	-3.86309e-09 	3.74044e-11
0.0845 	3.75751 	-3.82047e-09 	3.69725e-11
0.0855 	3.76601 	-3.77835e-09 	3.65459e-11
0.0865 	3.77445 	-3.73674e-09 	3.61243e-11
0.0875 	3.78283 	-3.69561e-09 	3.57077e-11
0.0885 	3.79115 	-3.65495e-09 	3.5296e-11
0.0895 	3.79942 	-3.61475e-09 	3.48888e-11
0.0905 	3.80763 	-3.57499e-09 	3.44862e-11
0.0915 	3.81578 	-3.53567e-09 	3.40881e-11
0.0925 	3.82388 	-3.49677e-09 	3.36942e-11
0.0935 	3.83192 	-3.45828e-09 	3.33046e-11
0.0945 	3.83991 	-3.4202e-09 	3.29191e-11
0.0955 	3.84784 	-3.3825e-09 	3.25376e-11
0.0965 	3.85572 	-3.34519e-09 	3.216e-11
0.0975 	3.86355 	-3.30826e-09 	3.17863e-11
0.0985 	3.87133 	-3.27169e-09 	3.14164e-11
0.0995 	3.87905 	-3.23549e-09 	3.10502e-11
0.1005 	3.88672 	-3.19964e-09 	3.06876e-11
0.1015 	3.89434 	-3.16413e-09 	3.03287e-11
0.1025 	3.9019 	-3.12897e-09 	2.99732e-11
0.1035 	3.90942 	-3.09415e-09 	2.96212e-11
0.1045 	3.91689 	-3.05965e-09 	2.92726e-11
0.1055 	3.9243 	-3.02548e-09 	2.89273e-11
0.1065 	3.93167 	-2.99162e-09 	2.85853e-11
0.1075 	3.93899 	-2.95809e-09 	2.82467e-11
0.1085 	3.94625 	-2.92486e-09 	2.79113e-11
0.1095 	3.95347 	-2.89194e-09 	2.75789e-11
0.1105 	3.96064 	-2.85932e-09 	2.72497e-11
0.1115 	3.96777 	-2.827e-09 	2.69237e-11
0.1125 	3.97484 	-2.79499e-09 	2.66007e-11
0.1135 	3.98187 	-2.76325e-09 	2.62807e-11
0.1145 	3.98885 	-2.73181e-09 	2.59636e-11
0.1155 	3.99578 	-2.70065e-09 	2.56496e-11
0.1165 	4.00266 	-2.66978e-09 	2.53385e-11
0.1175 	4.0095 	-2.63918e-09 	2.50303e-11
0.1185 	4.01629 	-2.60887e-09 	2.4725e-11
0.1195 	4.02304 	-2.57883e-09 	2.44225e-11
0.1205 	4.02974 	-2.54905e-09 	2.41228e-11
0.1215 	4.0364 	-2.51955e-09 	2.38259e-11
0.1225 	4.04301 	-2.49031e-09 	2.35318e-11
0.1235 	4.04958 	-2.46135e-09 	2.32404e-11
0.1245 	4.0561 	-2.43264e-09 	2.29518e-11
0.1255 	4.06258 	-2.4042e-09 	2.26659e-11
0.1265 	4.06901 	-2.37601e-09 	2.23826e-11
0.1275 	4.0754 	-2.34808e-09 	2.2102e-11
0.1285 	4.08175 	-2.3204e-09 	2.1824e-11
0.1295 	4.08805 	-2.29297e-09 	2.15486e-11
0.1305 	4.09431 	-2.2658e-09 	2.12759e-11
0.1315 	4.10053 	-2.23888e-09 	2.10058e-11
0.1325 	4.1067 	-2.2122e-09 	2.07382e-11
0.1335 	4.11283 	-2.18577e-09 	2.04731e-11
0.1345 	4.11892 	-2.15958e-09 	2.02106e-11
0.1355 	4.12497 	-2.13363e-09 	1.99506e-11
0.1365 	4.13098 	-2.10793e-09 	1.9693e-11
0.1375 	4.13694 	-2.08246e-09 	1.9438e-11
0.1385 	4.14287 	-2.05723e-09 	1.91854e-11
0.1395 	4.14875 	-2.03224e-09 	1.89353e-11
0.1405 	4.1546 	-2.00748e-09 	1.86875e-11
0.1415 	4.1604 	-1.98296e-09 	1.84422e-11
0.1425 	4.16616 	-1.95866e-09 	1.81992e-11
0.1435 	4.17189 	-1.93459e-09 	1.79586e-11
0.1445 	4.17757 	-1.91075e-09 	1.77204e-11
0.1455 	4.18321 	-1.88714e-09 	1.74845e-11
0.1465 	4.18882 	-1.86375e-09 	1.72509e-11
0.1475 	4.19438 	-1.84058e-09 	1.70196e-11
0.1485 	4.19991 	-1.81764e-09 	1.67906e-11
0.1495 	4.2054 	-1.79491e-09 	1.65639e-11
0.1505 	4.21085 	-1.7724e-09 	1.63394e-11
0.1515 	4.21627 	-1.75011e-09 	1.61171e-11
0.1525 	4.22164 	-1.72804e-09 	1.58971e-11
0.1535 	4.22698 	-1.70617e-09 	1.56793e-11
0.1545 	4.23228 	-1.68452e-09 	1.54637e-11
0.1555 	4.23754 	-1.66309e-09 	1.52502e-11
0.1565 	4.24277 	-1.64186e-09 	1.5039e-11
0.1575 	4.24796 	-1.62085e-09 	1.48298e-11
0.1585 	4.25312 	-1.60003e-09 	1.46228e-11
0.1595 	4.25823 	-1.57942e-09 	1.44179e-11
0.1605 	4.26332 	-1.55902e-09 	1.42151e-11
0.1615 	4.26836 	-1.53882e-09 	1.40143e-11
0.1625 	4.27338 	-1.51881e-09 	1.38157e-11
0.1635 	4.27835 	-1.49901e-09 	1.3619e-11
0.1645 	4.28329 	-1.4794e-09 	1.34243e-11
0.1655 	4.2882 	-1.45998e-09 	1.32317e-11
0.1665 	4.29307 	-1.44076e-09 	1.30411e-11
0.1675 	4.29791 	-1.42174e-09 	1.28525e-11
0.1685 	4.30272 	-1.40291e-09 	1.26659e-11
0.1695 	4.30749 	-1.38427e-09 	1.24812e-11
0.1705 	4.31222 	-1.36582e-09 	1.22984e-11
0.1715 	4.31693 	-1.34755e-09 	1.21176e-11
0.1725 	4.3216 	-1.32947e-09 	1.19386e-11
0.1735 	4.32624 	-1.31158e-09 	1.17616e-11
0.1745 	4.33084 	-1.29386e-09 	1.15864e-11
0.1755 	4.33541 	-1.27633e-09 	1.14131e-11
0.1765 	4.33995 	-1.25897e-09 	1.12415e-11
0.1775 	4.34446 	-1.24179e-09 	1.10718e-11
0.1785 	4.34894 	-1.22479e-09 	1.0904e-11
0.1795 	4.35338 	-1.20797e-09 	1.07379e-11
0.1805 	4.3578 	-1.19132e-09 	1.05736e-11
0.1815 	4.36218 	-1.17485e-09 	1.04111e-11
0.1825 	4.36653 	-1.15854e-09 	1.02504e-11
0.1835 	4.37085 	-1.1424e-09 	1.00913e-11
0.1845 	4.37514 	-1.12644e-09 	9.93404e-12
0.1855 	4.3794 	-1.11064e-09 	9.77845e-12
0.1865 	4.38363 	-1.09501e-09 	9.62455e-12
0.1875 	4.38783 	-1.07954e-09 	9.4723e-12
0.1885 	4.392 	-1.06423e-09 	9.32173e-12
0.1895 	4.39614 	-1.04908e-09 	9.17281e-12
0.1905 	4.40025 	-1.0341e-09 	9.02551e-12
0.1915 	4.40434 	-1.01927e-09 	8.87982e-12
0.1925 	4.40839 	-1.0046e-09 	8.73574e-12
0.1935 	4.41241 	-9.9008e-10 	8.59325e-12
0.1945 	4.41641 	-9.75719e-10 	8.45233e-12
0.1955 	4.42038 	-9.61512e-10 	8.31297e-12
0.1965 	4.42432 	-9.47456e-10 	8.17517e-12
0.1975 	4.42823 	-9.3355e-10 	8.03889e-12
0.1985 	4.43212 	-9.19795e-10 	7.90414e-12
0.1995 	4.43597 	-9.06187e-10 	7.7709e-12
0.2005 	4.4398 	-8.92728e-10 	7.63915e-12
0.2015 	4.4436 	-8.79411e-10 	7.50886e-12
0.2025 	4.44738 	-8.66236e-10 	7.38003e-12
0.2035 	4.45113 	-8.53206e-10 	7.25264e-12
0.2045 	4.45485 	-8.40313e-10 	7.12668e-12
0.2055 	4.45855 	-8.27563e-10 	7.00214e-12
0.2065 	4.46222 	-8.14948e-10 	6.87901e-12
0.2075 	4.46586 	-8.02474e-10 	6.75729e-12
0.2085 	4.46948 	-7.90135e-10 	6.63693e-12
0.2095 	4.47307 	-7.7793e-10 	6.51794e-12
0.2105 	4.47664 	-7.6586e-10 	6.40033e-12
0.2115 	4.48018 	-7.53927e-10 	6.28408e-12
0.2125 	4.4837 	-7.42121e-10 	6.16914e-12
0.2135 	4.48719 	-7.30443e-10 	6.05551e-12
0.2145 	4.49066 	-7.18895e-10 	5.94317e-12
0.2155 	4.4941 	-7.0747e-10 	5.83211e-12
0.2165 	4.49752 	-6.96176e-10 	5.72235e-12
0.2175 	4.50091 	-6.85006e-10 	5.61385e-12
0.2185 	4.50428 	-6.73956e-10 	5.50658e-12
0.2195 	4.50763 	-6.63029e-10 	5.40056e-12
0.2205 	4.51095 	-6.52225e-10 	5.29577e-12
0.2215 	4.51425 	-6.41543e-10 	5.19222e-12
0.2225 	4.51753 	-6.30982e-10 	5.08988e-12
0.2235 	4.52078 	-6.20537e-10 	4.98873e-12
0.2245 	4.52401 	-6.10209e-10 	4.88875e-12
0.2255 	4.52722 	-5.99994e-10 	4.78993e-12
0.2265 	4.5304 	-5.89896e-10 	4.69229e-12
0.2275 	4.53356 	-5.79917e-10 	4.59582e-12
0.2285 	4.5367 	-5.70046e-10 	4.50046e-12
0.2295 	4.53982 	-5.60279e-10 	4.40618e-12
0.2305 	4.54292 	-5.50624e-10 	4.31302e-12
0.2315 	4.54599 	-5.41082e-10 	4.22099e-12
0.2325 	4.54904 	-5.31648e-10 	4.13004e-12
0.2335 	4.55207 	-5.22319e-10 	4.04016e-12
0.2345 	4.55508 	-5.13092e-10 	3.95133e-12
0.2355 	4.55807 	-5.03972e-10 	3.86356e-12
0.2365 	4.56104 	-4.9496e-10 	3.77688e-12
0.2375 	4.56399 	-4.86055e-10 	3.69126e-12
0.2385 	4.56691 	-4.77249e-10 	3.60664e-12
0.2395 	4.56981 	-4.6854e-10 	3.52302e-12
0.2405 	4.5727 	-4.59934e-10 	3.44042e-12
0.2415 	4.57556 	-4.51427e-10 	3.35881e-12
0.2425 	4.57841 	-4.43015e-10 	3.27817e-12
0.2435 	4.58123 	-4.34701e-10 	3.19853e-12
0.2445 	4.58403 	-4.26482e-10 	3.11982e-12
0.2455 	4.58682 	-4.1835e-10 	3.04203e-12
0.2465 	4.58958 	-4.10315e-10 	2.96519e-12
0.2475 	4.59233 	-4.02376e-10 	2.88932e-12
0.2485 	4.59505 	-3.94531e-10 	2.81438e-12
0.2495 	4.59776 	-3.86775e-10 	2.74035e-12
0.2505 	4.60045 	-3.79113e-10 	2.66725e-12
0.2515 	4.60311 	-3.71545e-10 	2.59506e-12
0.2525 	4.60576 	-3.64061e-10 	2.52374e-12
0.2535 	4.6084 	-3.56661e-10 	2.45329e-12
0.2545 	4.61101 	-3.49351e-10 	2.38372e-12
0.2555 	4.61361 	-3.42126e-10 	2.315e-12
0.2565 	4.61618 	-3.34982e-10 	2.24711e-12
0.2575 	4.61874 	-3.2792e-10 	2.18006e-12
0.2585 	4.62128 	-3.20942e-10 	2.11383e-12
0.2595 	4.62381 	-3.14046e-10 	2.04844e-12
0.2605 	4.62631 	-3.07234e-10 	1.98387e-12
0.2615 	4.6288 	-3.00504e-10 	1.92012e-12
0.2625 	4.63127 	-2.93852e-10 	1.85716e-12
0.2635 	4.63372 	-2.87279e-10 	1.79499e-12
0.2645 	4.63616 	-2.80787e-10 	1.73362e-12
0.2655 	4.63857 	-2.74377e-10 	1.67305e-12
0.2665 	4.64098 	-2.68042e-10 	1.61323e-12
0.2675 	4.64336 	-2.6178e-10 	1.55416e-12
0.2685 	4.64573 	-2.55589e-10 	1.49583e-12
0.2695 	4.64808 	-2.49471e-10 	1.43822e-12
0.2705 	4.65042 	-2.43429e-10 	1.38136e-12
0.2715 	4.65273 	-2.37457e-10 	1.32521e-12
0.2725 	4.65504 	-2.31557e-10 	1.26979e-12
0.2735 	4.65732 	-2.25733e-10 	1.21509e-12
0.2745 	4.6596 	-2.19976e-10 	1.16108e-12
0.2755 	4.66185 	-2.14288e-10 	1.10777e-12
0.2765 	4.66409 	-2.08668e-10 	1.05514e-12
0.2775 	4.66632 	-2.0312e-10 	1.00321e-12
0.2785 	4.66852 	-1.97647e-10 	9.51981e-13
0.2795 	4.67072 	-1.92243e-10 	9.01437e-13
0.2805 	4.67289 	-1.86901e-10 	8.51519e-13
0.2815 	4.67506 	-1.81611e-10 	8.02209e-13
0.2825 	4.6772 	-1.76386e-10 	7.53551e-13
0.2835 	4.67934 	-1.71235e-10 	7.05565e-13
0.2845 	4.68145 	-1.66148e-10 	6.5821e-13
0.2855 	4.68356 	-1.61118e-10 	6.1146e-13
0.2865 	4.68565 	-1.5615e-10 	5.65332e-13
0.2875 	4.68772 	-1.51247e-10 	5.19822e-13
0.2885 	4.68978 	-1.46403e-10 	4.74914e-13
0.2895 	4.69183 	-1.41621e-10 	4.30614e-13
0.2905 	4.69386 	-1.36905e-10 	3.86918e-13
0.2915 	4.69587 	-1.32247e-10 	3.43806e-13
0.2925 	4.69788 	-1.27641e-10 	3.01257e-13
0.2935 	4.69987 	-1.23086e-10 	2.59271e-13
0.2945 	4.70184 	-1.18592e-10 	2.17861e-13
0.2955 	4.70381 	-1.14165e-10 	1.77024e-13
0.2965 	4.70575 	-1.09791e-10 	1.36738e-13
0.2975 	4.70769 	-1.05465e-10 	9.69935e-14
0.2985 	4.70961 	-1.01194e-10 	5.77924e-14
