0.0005 	0.601357 	-1.26502e-09 	1.49999e-11
0.0015 	0.606228 	-5.11745e-09 	5.64412e-11
0.0025 	0.615527 	-7.36154e-09 	7.73839e-11
0.0035 	0.628389 	-8.92805e-09 	9.16888e-11
0.0045 	0.643688 	-9.88705e-09 	1.00111e-10
0.0055 	0.660459 	-1.03435e-08 	1.03765e-10
0.0065 	0.677908 	-1.04218e-08 	1.03905e-10
0.0075 	0.695443 	-1.02419e-08 	1.01688e-10
0.0085 	0.712666 	-9.90203e-09 	9.80451e-11
0.0095 	0.729331 	-9.47564e-09 	9.36604e-11
0.0105 	0.745305 	-9.01403e-09 	8.90059e-11
0.0115 	0.760537 	-8.5505e-09 	8.43832e-11
0.0125 	0.775029 	-8.10489e-09 	7.99681e-11
0.0135 	0.78881 	-7.68768e-09 	7.58505e-11
0.0145 	0.801926 	-7.30317e-09 	7.20635e-11
0.0155 	0.814431 	-6.95177e-09 	6.86055e-11
0.0165 	0.826377 	-6.63167e-09 	6.54554e-11
0.0175 	0.837815 	-6.33997e-09 	6.25829e-11
0.0185 	0.84879 	-6.07332e-09 	5.99544e-11
0.0195 	0.85934 	-5.82839e-09 	5.75367e-11
0.0205 	0.8695 	-5.60205e-09 	5.52994e-11
0.0215 	0.879301 	-5.39157e-09 	5.3216e-11
0.0225 	0.888766 	-5.19462e-09 	5.12642e-11
0.0235 	0.897916 	-5.00924e-09 	4.9425e-11
0.0245 	0.906771 	-4.83384e-09 	4.76832e-11
0.0255 	0.915343 	-4.66706e-09 	4.60258e-11
0.0265 	0.923648 	-4.50785e-09 	4.44427e-11
0.0275 	0.931697 	-4.35536e-09 	4.2926e-11
0.0285 	0.9395 	-4.20895e-09 	4.14692e-11
0.0295 	0.947065 	-4.06807e-09 	4.00676e-11
0.0305 	0.954402 	-3.93231e-09 	3.87168e-11
0.0315 	0.961518 	-3.80129e-09 	3.74134e-11
0.0325 	0.968419 	-3.67475e-09 	3.61547e-11
0.0335 	0.975114 	-3.55246e-09 	3.49387e-11
0.0345 	0.981607 	-3.43424e-09 	3.37633e-11
0.0355 	0.987906 	-3.31991e-09 	3.26271e-11
0.0365 	0.994015 	-3.20934e-09 	3.15286e-11
0.0375 	0.999941 	-3.1024e-09 	3.04664e-11
0.0385 	1.00569 	-2.99897e-09 	2.94395e-11
0.0395 	1.01127 	-2.89894e-09 	2.84466e-11
0.0405 	1.01668 	-2.80219e-09 	2.74868e-11
0.0415 	1.02192 	-2.70866e-09 	2.65591e-11
0.0425 	1.02701 	-2.61823e-09 	2.56626e-11
0.0435 	1.03194 	-2.5308e-09 	2.47961e-11
0.0445 	1.03673 	-2.44629e-09 	2.39588e-11
0.0455 	1.04138 	-2.36462e-09 	2.31499e-11
0.0465 	1.04588 	-2.28569e-09 	2.23685e-11
0.0475 	1.05026 	-2.20943e-09 	2.16137e-11
0.0485 	1.0545 	-2.13574e-09 	2.08847e-11
0.0495 	1.05861 	-2.06455e-09 	2.01806e-11
0.0505 	1.0626 	-1.99577e-09 	1.95006e-11
0.0515 	1.06647 	-1.92934e-09 	1.8844e-11
0.0525 	1.07022 	-1.86518e-09 	1.82101e-11
0.0535 	1.07387 	-1.8032e-09 	1.75979e-11
0.0545 	1.0774 	-1.74334e-09 	1.70069e-11
0.0555 	1.08083 	-1.68552e-09 	1.64361e-11
0.0565 	1.08416 	-1.62968e-09 	1.58851e-11
0.0575 	1.0874 	-1.57574e-09 	1.53531e-11
0.0585 	1.09053 	-1.52365e-09 	1.48394e-11
0.0595 	1.09358 	-1.47333e-09 	1.43433e-11
0.0605 	1.09653 	-1.42473e-09 	1.38644e-11
0.0615 	1.0994 	-1.37779e-09 	1.3402e-11
0.0625 	1.10218 	-1.33245e-09 	1.29554e-11
0.0635 	1.10488 	-1.28866e-09 	1.25243e-11
0.0645 	1.1075 	-1.24637e-09 	1.2108e-11
0.0655 	1.11005 	-1.2055e-09 	1.17059e-11
0.0665 	1.11252 	-1.16602e-09 	1.13176e-11
0.0675 	1.11492 	-1.12788e-09 	1.09426e-11
0.0685 	1.11725 	-1.09103e-09 	1.05803e-11
0.0695 	1.11952 	-1.05542e-09 	1.02304e-11
0.0705 	1.12172 	-1.02102e-09 	9.89242e-12
0.0715 	1.12385 	-9.87762e-10 	9.56586e-12
0.0725 	1.12592 	-9.55628e-10 	9.25042e-12
0.0735 	1.12794 	-9.24578e-10 	8.94569e-12
0.0745 	1.12989 	-8.94567e-10 	8.65128e-12
0.0755 	1.13179 	-8.65567e-10 	8.36687e-12
0.0765 	1.13364 	-8.37536e-10 	8.09207e-12
0.0775 	1.13543 	-8.10441e-10 	7.82653e-12
0.0785 	1.13718 	-7.8425e-10 	7.56994e-12
0.0795 	1.13887 	-7.58932e-10 	7.32198e-12
0.0805 	1.14051 	-7.34455e-10 	7.08233e-12
0.0815 	1.14211 	-7.10786e-10 	6.85071e-12
0.0825 	1.14366 	-6.87904e-10 	6.62681e-12
0.0835 	1.14517 	-6.65769e-10 	6.41034e-12
0.0845 	1.14664 	-6.44369e-10 	6.20113e-12
0.0855 	1.14807 	-6.23673e-10 	5.99886e-12
0.0865 	1.14945 	-6.03653e-10 	5.80329e-12
0.0875 	1.1508 	-5.84296e-10 	5.61423e-12
0.0885 	1.1521 	-5.65571e-10 	5.43145e-12
0.0895 	1.15338 	-5.47461e-10 	5.25471e-12
0.0905 	1.15461 	-5.29938e-10 	5.08379e-12
0.0915 	1.15581 	-5.12991e-10 	4.91853e-12
0.0925 	1.15698 	-4.96599e-10 	4.75876e-12
0.0935 	1.15812 	-4.8074e-10 	4.60421e-12
0.0945 	1.15922 	-4.65389e-10 	4.4547e-12
0.0955 	1.1603 	-4.50538e-10 	4.31012e-12
0.0965 	1.16134 	-4.36174e-10 	4.17031e-12
0.0975 	1.16235 	-4.22272e-10 	4.03507e-12
0.0985 	1.16334 	-4.08817e-10 	3.90422e-12
0.0995 	1.1643 	-3.95796e-10 	3.77765e-12
0.1005 	1.16523 	-3.83196e-10 	3.65522e-12
0.1015 	1.16614 	-3.71002e-10 	3.53679e-12
0.1025 	1.16702 	-3.59201e-10 	3.42222e-12
0.1035 	1.16788 	-3.47778e-10 	3.31137e-12
0.1045 	1.16872 	-3.36723e-10 	3.20413e-12
0.1055 	1.16953 	-3.26023e-10 	3.10036e-12
0.1065 	1.17032 	-3.15664e-10 	2.99997e-12
0.1075 	1.17109 	-3.05638e-10 	2.90284e-12
0.1085 	1.17183 	-2.95931e-10 	2.80885e-12
0.1095 	1.17256 	-2.86534e-10 	2.71789e-12
0.1105 	1.17327 	-2.77439e-10 	2.6299e-12
0.1115 	1.17395 	-2.68634e-10 	2.54476e-12
0.1125 	1.17462 	-2.60108e-10 	2.46233e-12
0.1135 	1.17527 	-2.51851e-10 	2.38256e-12
0.1145 	1.17591 	-2.43859e-10 	2.30538e-12
0.1155 	1.17652 	-2.36121e-10 	2.23069e-12
0.1165 	1.17712 	-2.28626e-10 	2.15838e-12
0.1175 	1.1777 	-2.2137e-10 	2.08841e-12
0.1185 	1.17827 	-2.14345e-10 	2.02069e-12
0.1195 	1.17882 	-2.07538e-10 	1.95511e-12
0.1205 	1.17936 	-2.00947e-10 	1.89165e-12
0.1215 	1.17988 	-1.94566e-10 	1.83024e-12
0.1225 	1.18039 	-1.88387e-10 	1.77079e-12
0.1235 	1.18088 	-1.82402e-10 	1.71325e-12
0.1245 	1.18136 	-1.76606e-10 	1.65755e-12
0.1255 	1.18183 	-1.70992e-10 	1.60363e-12
0.1265 	1.18228 	-1.65557e-10 	1.55146e-12
0.1275 	1.18273 	-1.60296e-10 	1.50099e-12
0.1285 	1.18316 	-1.552e-10 	1.45212e-12
0.1295 	1.18358 	-1.50264e-10 	1.40481e-12
0.1305 	1.18399 	-1.45486e-10 	1.35904e-12
0.1315 	1.18438 	-1.40858e-10 	1.31473e-12
0.1325 	1.18477 	-1.36374e-10 	1.27183e-12
0.1335 	1.18515 	-1.32032e-10 	1.2303e-12
0.1345 	1.18551 	-1.27827e-10 	1.19011e-12
0.1355 	1.18587 	-1.23753e-10 	1.15119e-12
0.1365 	1.18622 	-1.19807e-10 	1.11352e-12
0.1375 	1.18655 	-1.15985e-10 	1.07705e-12
0.1385 	1.18688 	-1.12284e-10 	1.04176e-12
0.1395 	1.1872 	-1.087e-10 	1.0076e-12
0.1405 	1.18751 	-1.05228e-10 	9.74541e-13
0.1415 	1.18781 	-1.01865e-10 	9.42524e-13
0.1425 	1.18811 	-9.86059e-11 	9.11521e-13
0.1435 	1.1884 	-9.54511e-11 	8.8153e-13
0.1445 	1.18868 	-9.23961e-11 	8.52501e-13
0.1455 	1.18895 	-8.94352e-11 	8.24392e-13
0.1465 	1.18921 	-8.65686e-11 	7.9719e-13
0.1475 	1.18947 	-8.37925e-11 	7.70862e-13
0.1485 	1.18972 	-8.11037e-11 	7.45386e-13
0.1495 	1.18996 	-7.85e-11 	7.20725e-13
0.1505 	1.1902 	-7.59762e-11 	6.9684e-13
0.1515 	1.19043 	-7.35329e-11 	6.73738e-13
0.1525 	1.19065 	-7.11686e-11 	6.51389e-13
0.1535 	1.19087 	-6.88769e-11 	6.29742e-13
0.1545 	1.19108 	-6.66551e-11 	6.08772e-13
0.1555 	1.19129 	-6.45029e-11 	5.88475e-13
0.1565 	1.19149 	-6.24196e-11 	5.68839e-13
0.1575 	1.19169 	-6.04017e-11 	5.49831e-13
0.1585 	1.19188 	-5.84449e-11 	5.31415e-13
0.1595 	1.19207 	-5.65491e-11 	5.13589e-13
0.1605 	1.19225 	-5.47146e-11 	4.9635e-13
0.1615 	1.19243 	-5.29385e-11 	4.79672e-13
0.1625 	1.1926 	-5.1218e-11 	4.63531e-13
0.1635 	1.19277 	-4.95519e-11 	4.47909e-13
0.1645 	1.19293 	-4.79383e-11 	4.32789e-13
0.1655 	1.19309 	-4.63757e-11 	4.18165e-13
0.1665 	1.19324 	-4.48638e-11 	4.04024e-13
0.1675 	1.19339 	-4.33987e-11 	3.90328e-13
0.1685 	1.19354 	-4.19785e-11 	3.77067e-13
0.1695 	1.19368 	-4.06044e-11 	3.64243e-13
0.1705 	1.19382 	-3.92733e-11 	3.51832e-13
0.1715 	1.19395 	-3.79839e-11 	3.39823e-13
0.1725 	1.19408 	-3.67338e-11 	3.2818e-13
0.1735 	1.19421 	-3.55197e-11 	3.16891e-13
0.1745 	1.19433 	-3.43457e-11 	3.05993e-13
0.1755 	1.19445 	-3.32112e-11 	2.95454e-13
0.1765 	1.19457 	-3.21087e-11 	2.85227e-13
0.1775 	1.19469 	-3.104e-11 	2.75332e-13
0.1785 	1.1948 	-3.00069e-11 	2.65769e-13
0.1795 	1.1949 	-2.90065e-11 	2.56516e-13
0.1805 	1.19501 	-2.8037e-11 	2.47559e-13
0.1815 	1.19511 	-2.70974e-11 	2.38887e-13
0.1825 	1.19521 	-2.6187e-11 	2.30496e-13
0.1835 	1.19531 	-2.5306e-11 	2.22379e-13
0.1845 	1.1954 	-2.44521e-11 	2.14517e-13
0.1855 	1.1955 	-2.36233e-11 	2.06902e-13
0.1865 	1.19559 	-2.28214e-11 	1.99542e-13
0.1875 	1.19567 	-2.20457e-11 	1.92423e-13
0.1885 	1.19576 	-2.12928e-11 	1.85522e-13
0.1895 	1.19584 	-2.05633e-11 	1.78852e-13
0.1905 	1.19592 	-1.98591e-11 	1.72414e-13
0.1915 	1.196 	-1.91765e-11 	1.66178e-13
0.1925 	1.19607 	-1.8514e-11 	1.60136e-13
0.1935 	1.19615 	-1.78725e-11 	1.54293e-13
0.1945 	1.19622 	-1.72513e-11 	1.48641e-13
0.1955 	1.19629 	-1.66487e-11 	1.43161e-13
0.1965 	1.19636 	-1.6063e-11 	1.37849e-13
0.1975 	1.19642 	-1.54959e-11 	1.3271e-13
0.1985 	1.19649 	-1.49464e-11 	1.27736e-13
0.1995 	1.19655 	-1.44139e-11 	1.22924e-13
0.2005 	1.19661 	-1.38979e-11 	1.18268e-13
0.2015 	1.19667 	-1.33981e-11 	1.13766e-13
0.2025 	1.19673 	-1.29156e-11 	1.09427e-13
0.2035 	1.19678 	-1.24496e-11 	1.05234e-13
0.2045 	1.19684 	-1.19973e-11 	1.01178e-13
0.2055 	1.19689 	-1.15595e-11 	9.72571e-14
0.2065 	1.19694 	-1.11357e-11 	9.34619e-14
0.2075 	1.19699 	-1.07247e-11 	8.97912e-14
0.2085 	1.19704 	-1.03268e-11 	8.6241e-14
0.2095 	1.19708 	-9.94012e-12 	8.27979e-14
0.2105 	1.19713 	-9.5644e-12 	7.94605e-14
0.2115 	1.19717 	-9.20061e-12 	7.6233e-14
0.2125 	1.19721 	-8.84881e-12 	7.31192e-14
0.2135 	1.19726 	-8.50808e-12 	7.01049e-14
0.2145 	1.1973 	-8.17665e-12 	6.71874e-14
0.2155 	1.19733 	-7.85732e-12 	6.43775e-14
0.2165 	1.19737 	-7.54904e-12 	6.16655e-14
0.2175 	1.19741 	-7.25024e-12 	5.90475e-14
0.2185 	1.19744 	-6.96083e-12 	5.65132e-14
0.2195 	1.19748 	-6.67974e-12 	5.40635e-14
0.2205 	1.19751 	-6.40946e-12 	5.17086e-14
0.2215 	1.19754 	-6.14841e-12 	4.94377e-14
0.2225 	1.19758 	-5.89499e-12 	4.72407e-14
0.2235 	1.19761 	-5.64918e-12 	4.51144e-14
0.2245 	1.19763 	-5.41178e-12 	4.30666e-14
0.2255 	1.19766 	-5.18365e-12 	4.11034e-14
0.2265 	1.19769 	-4.9641e-12 	3.92191e-14
0.2275 	1.19772 	-4.75173e-12 	3.73978e-14
0.2285 	1.19774 	-4.54579e-12 	3.56396e-14
0.2295 	1.19777 	-4.3486e-12 	3.39598e-14
0.2305 	1.19779 	-4.1592e-12 	3.23465e-14
0.2315 	1.19781 	-3.97438e-12 	3.07781e-14
0.2325 	1.19784 	-3.79457e-12 	2.92624e-14
0.2335 	1.19786 	-3.62218e-12 	2.78079e-14
0.2345 	1.19788 	-3.45568e-12 	2.64103e-14
0.2355 	1.1979 	-3.29504e-12 	2.50692e-14
0.2365 	1.19792 	-3.1399e-12 	2.37725e-14
0.2375 	1.19794 	-2.98982e-12 	2.25306e-14
0.2385 	1.19795 	-2.84792e-12 	2.13503e-14
0.2395 	1.19797 	-2.71057e-12 	2.02166e-14
0.2405 	1.19799 	-2.57846e-12 	1.91333e-14
0.2415 	1.198 	-2.45246e-12 	1.80976e-14
0.2425 	1.19802 	-2.3315e-12 	1.71096e-14
0.2435 	1.19803 	-2.21558e-12 	1.61605e-14
0.2445 	1.19805 	-2.10235e-12 	1.52475e-14
0.2455 	1.19806 	-1.99452e-12 	1.43755e-14
0.2465 	1.19807 	-1.89036e-12 	1.35355e-14
0.2475 	1.19809 	-1.78982e-12 	1.27346e-14
0.2485 	1.1981 	-1.69416e-12 	1.19719e-14
0.2495 	1.19811 	-1.6021e-12 	1.12461e-14
0.2505 	1.19812 	-1.51526e-12 	1.05604e-14
0.2515 	1.19813 	-1.43238e-12 	9.90892e-15
0.2525 	1.19814 	-1.35304e-12 	9.29028e-15
0.2535 	1.19815 	-1.2775e-12 	8.70112e-15
0.2545 	1.19816 	-1.20496e-12 	8.13889e-15
0.2555 	1.19817 	-1.13558e-12 	7.60624e-15
0.2565 	1.19818 	-1.0697e-12 	7.10275e-15
0.2575 	1.19818 	-1.00668e-12 	6.62169e-15
0.2585 	1.19819 	-9.46154e-13 	6.16384e-15
0.2595 	1.1982 	-8.88725e-13 	5.73154e-15
0.2605 	1.19821 	-8.33912e-13 	5.32412e-15
0.2615 	1.19821 	-7.81957e-13 	4.93879e-15
0.2625 	1.19822 	-7.32418e-13 	4.57518e-15
0.2635 	1.19823 	-6.86321e-13 	4.23868e-15
0.2645 	1.19823 	-6.43513e-13 	3.92735e-15
0.2655 	1.19824 	-6.03136e-13 	3.63606e-15
0.2665 	1.19824 	-5.64641e-13 	3.35726e-15
0.2675 	1.19825 	-5.27281e-13 	3.09192e-15
0.2685 	1.19825 	-4.92154e-13 	2.84371e-15
0.2695 	1.19826 	-4.58714e-13 	2.61114e-15
0.2705 	1.19826 	-4.27176e-13 	2.39162e-15
0.2715 	1.19826 	-3.96935e-13 	2.18604e-15
0.2725 	1.19827 	-3.69363e-13 	1.99818e-15
0.2735 	1.19827 	-3.43499e-13 	1.82282e-15
0.2745 	1.19828 	-3.18779e-13 	1.65922e-15
0.2755 	1.19828 	-2.95984e-13 	1.50682e-15
0.2765 	1.19828 	-2.74085e-13 	1.36636e-15
0.2775 	1.19828 	-2.54501e-13 	1.23924e-15
0.2785 	1.19829 	-2.36133e-13 	1.12114e-15
0.2795 	1.19829 	-2.1892e-13 	1.0111e-15
0.2805 	1.19829 	-2.02515e-13 	9.0801e-16
0.2815 	1.19829 	-1.86673e-13 	8.10895e-16
0.2825 	1.1983 	-1.7139e-13 	7.19906e-16
0.2835 	1.1983 	-1.56953e-13 	6.34316e-16
0.2845 	1.1983 	-1.43202e-13 	5.58259e-16
0.2855 	1.1983 	-1.31726e-13 	4.9102e-16
0.2865 	1.1983 	-1.20296e-13 	4.26464e-16
0.2875 	1.19831 	-1.08919e-13 	3.65687e-16
0.2885 	1.19831 	-9.86661e-14 	3.14623e-16
0.2895 	1.19831 	-9.07539e-14 	2.67266e-16
0.2905 	1.19831 	-8.08807e-14 	2.2597e-16
0.2915 	1.19831 	-7.50057e-14 	1.88637e-16
0.2925 	1.19831 	-6.63357e-14 	1.55479e-16
0.2935 	1.19831 	-6.21388e-14 	1.24688e-16
0.2945 	1.19831 	-5.32399e-14 	9.74545e-17
0.2955 	1.19831 	-4.99034e-14 	7.08973e-17
0.2965 	1.19832 	-3.87661e-14 	4.72383e-17
0.2975 	1.19832 	-3.52361e-14 	2.80098e-17
0.2985 	1.19832 	-2.42486e-14 	7.46596e-18
