# Force coefficients
# liftDir    : (0.000000e+00 1.000000e+00 0.000000e+00)
# dragDir    : (1.000000e+00 0.000000e+00 0.000000e+00)
# pitchAxis  : (0.000000e+00 0.000000e+00 1.000000e+00)
# magUInf    : 5.148000e+01
# lRef       : 4.530000e-01
# Aref       : 4.348800e-01
# CofR       : (0.000000e+00 0.000000e+00 0.000000e+00)
# Time       	Cm           	Cd           	Cl           	Cl(f)        	Cl(r)        	Cm	Cd	Cl	Cl(f)	Cl(r)
1.000000e-03	-1.388801e-03	1.515173e-03	-2.372795e-03	-2.575198e-03	2.024031e-04
2.000000e-03	-5.382888e-03	6.067673e-03	-9.816204e-03	-1.029099e-02	4.747865e-04
3.000000e-03	-8.036191e-03	9.073820e-03	-1.545255e-02	-1.576246e-02	3.099187e-04
4.000000e-03	-8.362899e-03	9.481152e-03	-1.702008e-02	-1.687294e-02	-1.471406e-04
5.000000e-03	-7.873653e-03	8.911119e-03	-1.716711e-02	-1.645721e-02	-7.099046e-04
6.000000e-03	-7.628562e-03	8.541099e-03	-1.776361e-02	-1.651037e-02	-1.253245e-03
7.000000e-03	-7.816904e-03	8.576209e-03	-1.900351e-02	-1.731866e-02	-1.684850e-03
8.000000e-03	-8.920180e-03	9.595892e-03	-2.186526e-02	-1.985281e-02	-2.012452e-03
9.000000e-03	-1.063245e-02	1.127616e-02	-2.586039e-02	-2.356265e-02	-2.297745e-03
1.000000e-02	-1.260532e-02	1.324505e-02	-3.039842e-02	-2.780453e-02	-2.593887e-03
1.100000e-02	-1.439458e-02	1.501766e-02	-3.464109e-02	-3.171512e-02	-2.925969e-03
1.200000e-02	-1.603076e-02	1.665525e-02	-3.865681e-02	-3.535916e-02	-3.297651e-03
1.300000e-02	-1.741984e-02	1.804716e-02	-4.224500e-02	-3.854234e-02	-3.702662e-03
1.400000e-02	-1.873057e-02	1.937410e-02	-4.569811e-02	-4.157963e-02	-4.118483e-03
1.500000e-02	-2.032091e-02	2.101920e-02	-4.970414e-02	-4.517298e-02	-4.531161e-03
1.600000e-02	-2.240246e-02	2.318855e-02	-5.474240e-02	-4.977366e-02	-4.968739e-03
1.700000e-02	-2.492742e-02	2.581230e-02	-6.077171e-02	-5.531328e-02	-5.458429e-03
1.800000e-02	-2.776998e-02	2.873997e-02	-6.762963e-02	-6.158480e-02	-6.044833e-03
1.900000e-02	-3.069382e-02	3.170426e-02	-7.489440e-02	-6.814102e-02	-6.753380e-03
2.000000e-02	-3.356033e-02	3.455442e-02	-8.223169e-02	-7.467618e-02	-7.555514e-03
2.100000e-02	-3.633842e-02	3.726339e-02	-8.953181e-02	-8.110432e-02	-8.427485e-03
2.200000e-02	-3.905321e-02	3.986667e-02	-9.674220e-02	-8.742431e-02	-9.317891e-03
2.300000e-02	-4.177811e-02	4.246468e-02	-1.039607e-01	-9.375847e-02	-1.020225e-02
2.400000e-02	-4.461857e-02	4.518308e-02	-1.113654e-01	-1.003013e-01	-1.106412e-02
2.500000e-02	-4.771465e-02	4.818745e-02	-1.192389e-01	-1.073341e-01	-1.190483e-02
2.600000e-02	-5.113693e-02	5.155435e-02	-1.277758e-01	-1.150249e-01	-1.275099e-02
2.700000e-02	-5.487249e-02	5.527504e-02	-1.370181e-01	-1.233815e-01	-1.363654e-02
2.800000e-02	-5.888131e-02	5.929412e-02	-1.469406e-01	-1.323516e-01	-1.458899e-02
2.900000e-02	-6.302851e-02	6.346285e-02	-1.572970e-01	-1.416770e-01	-1.561998e-02
3.000000e-02	-6.720378e-02	6.765724e-02	-1.678450e-01	-1.511263e-01	-1.671872e-02
3.100000e-02	-7.141416e-02	7.188029e-02	-1.785576e-01	-1.606930e-01	-1.786466e-02
3.200000e-02	-7.565652e-02	7.612758e-02	-1.893613e-01	-1.703372e-01	-1.902413e-02
3.300000e-02	-8.000376e-02	8.048146e-02	-2.003623e-01	-1.801849e-01	-2.017741e-02
3.400000e-02	-8.452379e-02	8.501346e-02	-2.116752e-01	-1.903614e-01	-2.131383e-02
3.500000e-02	-8.930302e-02	8.981580e-02	-2.235237e-01	-2.010649e-01	-2.245882e-02
3.600000e-02	-9.431373e-02	9.486951e-02	-2.358226e-01	-2.122250e-01	-2.359756e-02
3.700000e-02	-9.966843e-02	1.002858e-01	-2.488555e-01	-2.240962e-01	-2.475929e-02
3.800000e-02	-1.051916e-01	1.058917e-01	-2.622226e-01	-2.363029e-01	-2.591976e-02
3.900000e-02	-1.108535e-01	1.116556e-01	-2.759015e-01	-2.488042e-01	-2.709726e-02
4.000000e-02	-1.166344e-01	1.175542e-01	-2.897987e-01	-2.615338e-01	-2.826498e-02
4.100000e-02	-1.224984e-01	1.235385e-01	-3.038586e-01	-2.744277e-01	-2.943090e-02
4.200000e-02	-1.283841e-01	1.295547e-01	-3.178698e-01	-2.873190e-01	-3.055078e-02
4.300000e-02	-1.343534e-01	1.356597e-01	-3.319796e-01	-3.003433e-01	-3.163639e-02
4.400000e-02	-1.404096e-01	1.418611e-01	-3.461275e-01	-3.134734e-01	-3.265409e-02
4.500000e-02	-1.466875e-01	1.482800e-01	-3.605934e-01	-3.269842e-01	-3.360917e-02
4.600000e-02	-1.531601e-01	1.548835e-01	-3.753501e-01	-3.408352e-01	-3.451490e-02
4.700000e-02	-1.597453e-01	1.615846e-01	-3.902663e-01	-3.548784e-01	-3.538788e-02
4.800000e-02	-1.662861e-01	1.682434e-01	-4.049453e-01	-3.687588e-01	-3.618655e-02
4.900000e-02	-1.727952e-01	1.748601e-01	-4.194324e-01	-3.825114e-01	-3.692095e-02
5.000000e-02	-1.792378e-01	1.814166e-01	-4.336097e-01	-3.960427e-01	-3.756703e-02
5.100000e-02	-1.856186e-01	1.879067e-01	-4.474342e-01	-4.093357e-01	-3.809851e-02
5.200000e-02	-1.918413e-01	1.942555e-01	-4.606619e-01	-4.221722e-01	-3.848970e-02
5.300000e-02	-1.979149e-01	2.004570e-01	-4.733243e-01	-4.345770e-01	-3.874725e-02
5.400000e-02	-2.038015e-01	2.064817e-01	-4.853626e-01	-4.464828e-01	-3.887984e-02
5.500000e-02	-2.095976e-01	2.124146e-01	-4.969791e-01	-4.580872e-01	-3.889196e-02
5.600000e-02	-2.153527e-01	2.183059e-01	-5.083300e-01	-4.695177e-01	-3.881225e-02
5.700000e-02	-2.210305e-01	2.241055e-01	-5.193921e-01	-4.807266e-01	-3.866553e-02
5.800000e-02	-2.265159e-01	2.296975e-01	-5.299606e-01	-4.914962e-01	-3.846438e-02
5.900000e-02	-2.317742e-01	2.350396e-01	-5.400346e-01	-5.017915e-01	-3.824309e-02
6.000000e-02	-2.367585e-01	2.400853e-01	-5.495516e-01	-5.115344e-01	-3.801727e-02
6.100000e-02	-2.414897e-01	2.448622e-01	-5.585620e-01	-5.207707e-01	-3.779132e-02
6.200000e-02	-2.459556e-01	2.493583e-01	-5.670671e-01	-5.294891e-01	-3.757798e-02
6.300000e-02	-2.501681e-01	2.535840e-01	-5.751234e-01	-5.377297e-01	-3.739363e-02
6.400000e-02	-2.541499e-01	2.575625e-01	-5.828032e-01	-5.455515e-01	-3.725168e-02
6.500000e-02	-2.578887e-01	2.612865e-01	-5.900942e-01	-5.529358e-01	-3.715836e-02
6.600000e-02	-2.614262e-01	2.647943e-01	-5.971262e-01	-5.599893e-01	-3.713683e-02
6.700000e-02	-2.647208e-01	2.680623e-01	-6.037929e-01	-5.666172e-01	-3.717568e-02
6.800000e-02	-2.678179e-01	2.711239e-01	-6.101863e-01	-5.729111e-01	-3.727519e-02
6.900000e-02	-2.706952e-01	2.739708e-01	-6.162322e-01	-5.788113e-01	-3.742092e-02
7.000000e-02	-2.733823e-01	2.766195e-01	-6.220181e-01	-5.843913e-01	-3.762672e-02
7.100000e-02	-2.759318e-01	2.791389e-01	-6.275800e-01	-5.897218e-01	-3.785826e-02
7.200000e-02	-2.784218e-01	2.815891e-01	-6.331009e-01	-5.949723e-01	-3.812861e-02
7.300000e-02	-2.808481e-01	2.839776e-01	-6.385254e-01	-6.001108e-01	-3.841460e-02
7.400000e-02	-2.832794e-01	2.863570e-01	-6.440131e-01	-6.052860e-01	-3.872713e-02
7.500000e-02	-2.857220e-01	2.887549e-01	-6.495364e-01	-6.104902e-01	-3.904619e-02
7.600000e-02	-2.881960e-01	2.911743e-01	-6.551666e-01	-6.157793e-01	-3.938731e-02
7.700000e-02	-2.907080e-01	2.936341e-01	-6.608818e-01	-6.211488e-01	-3.973293e-02
7.800000e-02	-2.933186e-01	2.961836e-01	-6.668244e-01	-6.267307e-01	-4.009362e-02
7.900000e-02	-2.960034e-01	2.988039e-01	-6.729194e-01	-6.324631e-01	-4.045636e-02
8.000000e-02	-2.988025e-01	3.015253e-01	-6.792623e-01	-6.384337e-01	-4.082858e-02
8.100000e-02	-3.017164e-01	3.043547e-01	-6.858233e-01	-6.446281e-01	-4.119527e-02
8.200000e-02	-3.047243e-01	3.072683e-01	-6.925714e-01	-6.510100e-01	-4.156142e-02
8.300000e-02	-3.078223e-01	3.102657e-01	-6.994765e-01	-6.575605e-01	-4.191596e-02
8.400000e-02	-3.109992e-01	3.133347e-01	-7.065295e-01	-6.642639e-01	-4.226553e-02
8.500000e-02	-3.143209e-01	3.165462e-01	-7.138473e-01	-6.712445e-01	-4.260277e-02
8.600000e-02	-3.177084e-01	3.198088e-01	-7.213339e-01	-6.783753e-01	-4.295860e-02
8.700000e-02	-3.211090e-01	3.230767e-01	-7.288718e-01	-6.855449e-01	-4.332692e-02
8.800000e-02	-3.245358e-01	3.263576e-01	-7.364922e-01	-6.927819e-01	-4.371028e-02
8.900000e-02	-3.280181e-01	3.296817e-01	-7.442424e-01	-7.001393e-01	-4.410311e-02
9.000000e-02	-3.316225e-01	3.331273e-01	-7.522232e-01	-7.077341e-01	-4.448903e-02
9.100000e-02	-3.353369e-01	3.367015e-01	-7.603637e-01	-7.155187e-01	-4.484497e-02
9.200000e-02	-3.390901e-01	3.403311e-01	-7.685267e-01	-7.233534e-01	-4.517329e-02
9.300000e-02	-3.427601e-01	3.439017e-01	-7.764752e-01	-7.309977e-01	-4.547744e-02
9.400000e-02	-3.464116e-01	3.474699e-01	-7.843388e-01	-7.385809e-01	-4.575783e-02
9.500000e-02	-3.501587e-01	3.511422e-01	-7.923052e-01	-7.463113e-01	-4.599391e-02
9.600000e-02	-3.542476e-01	3.551463e-01	-8.008834e-01	-7.546894e-01	-4.619406e-02
9.700000e-02	-3.587532e-01	3.595617e-01	-8.101920e-01	-7.638492e-01	-4.634279e-02
9.800000e-02	-3.634717e-01	3.641868e-01	-8.198815e-01	-7.734125e-01	-4.646906e-02
9.900000e-02	-3.680864e-01	3.687072e-01	-8.293923e-01	-7.827825e-01	-4.660978e-02
1.000000e-01	-3.724960e-01	3.730193e-01	-8.385653e-01	-7.917786e-01	-4.678667e-02
1.010000e-01	-3.767739e-01	3.772234e-01	-8.474391e-01	-8.004934e-01	-4.694565e-02
1.020000e-01	-3.811532e-01	3.815744e-01	-8.563877e-01	-8.093470e-01	-4.704063e-02
1.030000e-01	-3.857022e-01	3.861502e-01	-8.654961e-01	-8.184503e-01	-4.704581e-02
1.040000e-01	-3.899721e-01	3.905144e-01	-8.739256e-01	-8.269349e-01	-4.699068e-02
1.050000e-01	-3.937420e-01	3.944468e-01	-8.812965e-01	-8.343903e-01	-4.690626e-02
1.060000e-01	-3.968953e-01	3.978416e-01	-8.874188e-01	-8.406047e-01	-4.681405e-02
1.070000e-01	-3.991997e-01	4.004684e-01	-8.919151e-01	-8.451572e-01	-4.675790e-02
1.080000e-01	-4.004341e-01	4.020586e-01	-8.945182e-01	-8.476932e-01	-4.682495e-02
1.090000e-01	-4.004525e-01	4.024625e-01	-8.949333e-01	-8.479192e-01	-4.701412e-02
1.100000e-01	-3.995175e-01	4.019231e-01	-8.935507e-01	-8.462928e-01	-4.725791e-02
1.110000e-01	-3.980341e-01	4.008716e-01	-8.909996e-01	-8.435339e-01	-4.746568e-02
1.120000e-01	-3.963685e-01	3.996706e-01	-8.879165e-01	-8.403268e-01	-4.758970e-02
1.130000e-01	-3.946916e-01	3.984931e-01	-8.846250e-01	-8.370041e-01	-4.762094e-02
1.140000e-01	-3.930088e-01	3.973279e-01	-8.811996e-01	-8.336086e-01	-4.759096e-02
1.150000e-01	-3.912890e-01	3.961347e-01	-8.776218e-01	-8.300999e-01	-4.752187e-02
1.160000e-01	-3.895909e-01	3.949280e-01	-8.740639e-01	-8.266228e-01	-4.744101e-02
1.170000e-01	-3.878823e-01	3.936495e-01	-8.704751e-01	-8.231199e-01	-4.735523e-02
1.180000e-01	-3.862838e-01	3.924055e-01	-8.670367e-01	-8.198022e-01	-4.723455e-02
1.190000e-01	-3.850027e-01	3.914236e-01	-8.640491e-01	-8.170272e-01	-4.702190e-02
1.200000e-01	-3.841290e-01	3.907986e-01	-8.616452e-01	-8.149516e-01	-4.669356e-02
1.210000e-01	-3.837936e-01	3.906983e-01	-8.600084e-01	-8.137978e-01	-4.621063e-02
1.220000e-01	-3.839996e-01	3.911490e-01	-8.591517e-01	-8.135755e-01	-4.557623e-02
1.230000e-01	-3.847662e-01	3.922233e-01	-8.590825e-01	-8.143074e-01	-4.477509e-02
1.240000e-01	-3.863090e-01	3.941823e-01	-8.601397e-01	-8.163789e-01	-4.376080e-02
1.250000e-01	-3.885724e-01	3.969738e-01	-8.622701e-01	-8.197074e-01	-4.256261e-02
1.260000e-01	-3.914428e-01	4.004321e-01	-8.654094e-01	-8.241476e-01	-4.126187e-02
1.270000e-01	-3.945325e-01	4.041019e-01	-8.690448e-01	-8.290549e-01	-3.998991e-02
1.280000e-01	-3.974547e-01	4.075633e-01	-8.725821e-01	-8.337458e-01	-3.883638e-02
1.290000e-01	-3.999211e-01	4.105099e-01	-8.755436e-01	-8.376929e-01	-3.785068e-02
1.300000e-01	-4.019580e-01	4.129712e-01	-8.779548e-01	-8.409354e-01	-3.701944e-02
1.310000e-01	-4.036209e-01	4.150098e-01	-8.798543e-01	-8.435480e-01	-3.630627e-02
1.320000e-01	-4.050871e-01	4.168226e-01	-8.814661e-01	-8.458201e-01	-3.564594e-02
1.330000e-01	-4.067517e-01	4.188376e-01	-8.833890e-01	-8.484462e-01	-3.494284e-02
1.340000e-01	-4.087398e-01	4.212007e-01	-8.858164e-01	-8.516480e-01	-3.416842e-02
1.350000e-01	-4.109393e-01	4.237953e-01	-8.885991e-01	-8.552388e-01	-3.336029e-02
1.360000e-01	-4.129986e-01	4.262344e-01	-8.912397e-01	-8.586184e-01	-3.262125e-02
1.370000e-01	-4.146918e-01	4.282569e-01	-8.934359e-01	-8.614098e-01	-3.202614e-02
1.380000e-01	-4.158696e-01	4.296989e-01	-8.949550e-01	-8.633471e-01	-3.160796e-02
1.390000e-01	-4.164525e-01	4.304773e-01	-8.956468e-01	-8.642759e-01	-3.137094e-02
1.400000e-01	-4.166130e-01	4.307754e-01	-8.957637e-01	-8.644948e-01	-3.126887e-02
1.410000e-01	-4.165094e-01	4.307798e-01	-8.955193e-01	-8.642691e-01	-3.125025e-02
1.420000e-01	-4.164182e-01	4.308107e-01	-8.953174e-01	-8.640770e-01	-3.124049e-02
1.430000e-01	-4.165467e-01	4.310838e-01	-8.955262e-01	-8.643098e-01	-3.121640e-02
1.440000e-01	-4.169142e-01	4.315906e-01	-8.962540e-01	-8.650412e-01	-3.121281e-02
1.450000e-01	-4.174715e-01	4.322546e-01	-8.974574e-01	-8.662002e-01	-3.125713e-02
1.460000e-01	-4.181507e-01	4.329752e-01	-8.990984e-01	-8.676999e-01	-3.139846e-02
1.470000e-01	-4.188426e-01	4.336421e-01	-9.009575e-01	-8.693213e-01	-3.163614e-02
1.480000e-01	-4.194991e-01	4.341965e-01	-9.029910e-01	-8.709946e-01	-3.199641e-02
1.490000e-01	-4.200754e-01	4.346018e-01	-9.050647e-01	-8.726078e-01	-3.245696e-02
1.500000e-01	-4.207066e-01	4.350023e-01	-9.074215e-01	-8.744173e-01	-3.300422e-02
1.510000e-01	-4.215283e-01	4.355479e-01	-9.102380e-01	-8.766473e-01	-3.359075e-02
1.520000e-01	-4.226950e-01	4.363896e-01	-9.138339e-01	-8.796119e-01	-3.422191e-02
1.530000e-01	-4.242752e-01	4.375931e-01	-9.183261e-01	-8.834383e-01	-3.488778e-02
1.540000e-01	-4.262655e-01	4.391402e-01	-9.237910e-01	-8.881611e-01	-3.562998e-02
1.550000e-01	-4.286684e-01	4.410289e-01	-9.302317e-01	-8.937842e-01	-3.644744e-02
1.560000e-01	-4.314855e-01	4.432330e-01	-9.377737e-01	-9.003724e-01	-3.740129e-02
1.570000e-01	-4.346867e-01	4.457012e-01	-9.463759e-01	-9.078746e-01	-3.850129e-02
1.580000e-01	-4.383590e-01	4.484935e-01	-9.562977e-01	-9.165079e-01	-3.978985e-02
1.590000e-01	-4.424814e-01	4.516049e-01	-9.673825e-01	-9.261726e-01	-4.120991e-02
1.600000e-01	-4.472023e-01	4.552105e-01	-9.798283e-01	-9.371165e-01	-4.271185e-02
1.610000e-01	-4.525647e-01	4.594068e-01	-9.935310e-01	-9.493302e-01	-4.420085e-02
1.620000e-01	-4.583261e-01	4.640464e-01	-1.007748e+00	-9.621999e-01	-4.554780e-02
1.630000e-01	-4.638151e-01	4.685582e-01	-1.020887e+00	-9.742587e-01	-4.662839e-02
1.640000e-01	-4.687949e-01	4.727334e-01	-1.032373e+00	-9.849814e-01	-4.739155e-02
1.650000e-01	-4.732581e-01	4.765784e-01	-1.042112e+00	-9.943142e-01	-4.779804e-02
1.660000e-01	-4.777302e-01	4.805888e-01	-1.051211e+00	-1.003336e+00	-4.787537e-02
1.670000e-01	-4.829021e-01	4.854421e-01	-1.061116e+00	-1.013460e+00	-4.765598e-02
1.680000e-01	-4.884631e-01	4.908443e-01	-1.071678e+00	-1.024302e+00	-4.737603e-02
1.690000e-01	-4.927348e-01	4.951017e-01	-1.080381e+00	-1.032925e+00	-4.745595e-02
1.700000e-01	-4.937588e-01	4.961768e-01	-1.084037e+00	-1.035777e+00	-4.825977e-02
1.710000e-01	-4.915319e-01	4.940461e-01	-1.082309e+00	-1.032686e+00	-4.962232e-02
1.720000e-01	-4.875598e-01	4.902154e-01	-1.077271e+00	-1.026195e+00	-5.107586e-02
1.730000e-01	-4.833873e-01	4.862058e-01	-1.071270e+00	-1.019022e+00	-5.224759e-02
1.740000e-01	-4.800142e-01	4.829404e-01	-1.066234e+00	-1.013131e+00	-5.310264e-02
1.750000e-01	-4.775955e-01	4.805196e-01	-1.062777e+00	-1.008984e+00	-5.379292e-02
1.760000e-01	-4.758949e-01	4.786900e-01	-1.060843e+00	-1.006316e+00	-5.452653e-02
1.770000e-01	-4.746403e-01	4.772257e-01	-1.060018e+00	-1.004649e+00	-5.536872e-02
1.780000e-01	-4.737043e-01	4.760444e-01	-1.059961e+00	-1.003685e+00	-5.627619e-02
1.790000e-01	-4.731082e-01	4.752163e-01	-1.060459e+00	-1.003338e+00	-5.712144e-02
1.800000e-01	-4.728952e-01	4.747970e-01	-1.061407e+00	-1.003599e+00	-5.780832e-02
1.810000e-01	-4.731250e-01	4.748535e-01	-1.062800e+00	-1.004525e+00	-5.827475e-02
1.820000e-01	-4.737748e-01	4.753457e-01	-1.064641e+00	-1.006095e+00	-5.854565e-02
1.830000e-01	-4.747918e-01	4.762152e-01	-1.066915e+00	-1.008249e+00	-5.866557e-02
1.840000e-01	-4.761142e-01	4.773894e-01	-1.069616e+00	-1.010922e+00	-5.869395e-02
1.850000e-01	-4.777529e-01	4.788984e-01	-1.072810e+00	-1.014158e+00	-5.865217e-02
1.860000e-01	-4.796853e-01	4.807199e-01	-1.076503e+00	-1.017937e+00	-5.856639e-02
1.870000e-01	-4.818799e-01	4.828314e-01	-1.080616e+00	-1.022188e+00	-5.842822e-02
1.880000e-01	-4.842690e-01	4.851531e-01	-1.085059e+00	-1.026798e+00	-5.826048e-02
1.890000e-01	-4.867936e-01	4.876197e-01	-1.089736e+00	-1.031662e+00	-5.807431e-02
1.900000e-01	-4.893314e-01	4.900886e-01	-1.094480e+00	-1.036572e+00	-5.790888e-02
1.910000e-01	-4.918248e-01	4.925068e-01	-1.099176e+00	-1.041413e+00	-5.776314e-02
1.920000e-01	-4.942043e-01	4.948010e-01	-1.103715e+00	-1.046062e+00	-5.765329e-02
1.930000e-01	-4.964664e-01	4.969893e-01	-1.108035e+00	-1.050484e+00	-5.755111e-02
1.940000e-01	-4.986068e-01	4.990632e-01	-1.112163e+00	-1.054688e+00	-5.747452e-02
1.950000e-01	-5.006376e-01	5.010607e-01	-1.116053e+00	-1.058664e+00	-5.738891e-02
1.960000e-01	-5.025517e-01	5.029547e-01	-1.119770e+00	-1.062436e+00	-5.733304e-02
1.970000e-01	-5.043411e-01	5.047548e-01	-1.123229e+00	-1.065956e+00	-5.727333e-02
1.980000e-01	-5.060025e-01	5.064335e-01	-1.126507e+00	-1.069256e+00	-5.725105e-02
1.990000e-01	-5.075024e-01	5.079735e-01	-1.129459e+00	-1.072232e+00	-5.722700e-02
2.000000e-01	-5.088137e-01	5.093262e-01	-1.132104e+00	-1.074866e+00	-5.723842e-02
2.010000e-01	-5.098911e-01	5.104661e-01	-1.134293e+00	-1.077038e+00	-5.725559e-02
2.020000e-01	-5.107009e-01	5.113398e-01	-1.136017e+00	-1.078709e+00	-5.730736e-02
2.030000e-01	-5.112406e-01	5.119650e-01	-1.137225e+00	-1.079853e+00	-5.737203e-02
2.040000e-01	-5.115013e-01	5.123087e-01	-1.137929e+00	-1.080466e+00	-5.746339e-02
2.050000e-01	-5.115255e-01	5.124334e-01	-1.138165e+00	-1.080608e+00	-5.755693e-02
2.060000e-01	-5.113276e-01	5.123318e-01	-1.137979e+00	-1.080317e+00	-5.766217e-02
2.070000e-01	-5.109646e-01	5.120830e-01	-1.137426e+00	-1.079678e+00	-5.774838e-02
2.080000e-01	-5.104639e-01	5.116914e-01	-1.136587e+00	-1.078757e+00	-5.782961e-02
2.090000e-01	-5.098830e-01	5.112348e-01	-1.135526e+00	-1.077646e+00	-5.787990e-02
2.100000e-01	-5.092566e-01	5.107237e-01	-1.134350e+00	-1.076432e+00	-5.791850e-02
2.110000e-01	-5.086194e-01	5.102137e-01	-1.133074e+00	-1.075157e+00	-5.791773e-02
2.120000e-01	-5.079882e-01	5.096992e-01	-1.131777e+00	-1.073877e+00	-5.790043e-02
2.130000e-01	-5.073914e-01	5.092313e-01	-1.130457e+00	-1.072620e+00	-5.783697e-02
2.140000e-01	-5.068424e-01	5.087980e-01	-1.129192e+00	-1.071439e+00	-5.775368e-02
2.150000e-01	-5.063508e-01	5.084331e-01	-1.127952e+00	-1.070327e+00	-5.762539e-02
2.160000e-01	-5.059255e-01	5.081237e-01	-1.126803e+00	-1.069327e+00	-5.747610e-02
2.170000e-01	-5.055768e-01	5.079009e-01	-1.125712e+00	-1.068433e+00	-5.727941e-02
2.180000e-01	-5.053132e-01	5.077499e-01	-1.124759e+00	-1.067693e+00	-5.706645e-02
2.190000e-01	-5.051395e-01	5.076998e-01	-1.123900e+00	-1.067089e+00	-5.681035e-02
2.200000e-01	-5.050699e-01	5.077393e-01	-1.123229e+00	-1.066684e+00	-5.654451e-02
2.210000e-01	-5.050973e-01	5.078817e-01	-1.122687e+00	-1.066441e+00	-5.624639e-02
2.220000e-01	-5.052274e-01	5.081103e-01	-1.122351e+00	-1.066403e+00	-5.594798e-02
2.230000e-01	-5.054403e-01	5.084278e-01	-1.122127e+00	-1.066504e+00	-5.562331e-02
2.240000e-01	-5.057276e-01	5.088010e-01	-1.122071e+00	-1.066763e+00	-5.530791e-02
2.250000e-01	-5.060812e-01	5.092454e-01	-1.122113e+00	-1.067137e+00	-5.497508e-02
2.260000e-01	-5.064957e-01	5.097332e-01	-1.122301e+00	-1.067646e+00	-5.465459e-02
2.270000e-01	-5.069652e-01	5.102783e-01	-1.122581e+00	-1.068256e+00	-5.432532e-02
2.280000e-01	-5.074688e-01	5.108374e-01	-1.122983e+00	-1.068961e+00	-5.402286e-02
2.290000e-01	-5.080147e-01	5.114358e-01	-1.123469e+00	-1.069749e+00	-5.371958e-02
2.300000e-01	-5.085778e-01	5.120323e-01	-1.124042e+00	-1.070599e+00	-5.344322e-02
2.310000e-01	-5.091695e-01	5.126574e-01	-1.124674e+00	-1.071507e+00	-5.316772e-02
2.320000e-01	-5.097607e-01	5.132681e-01	-1.125362e+00	-1.072442e+00	-5.292014e-02
2.330000e-01	-5.103716e-01	5.139003e-01	-1.126088e+00	-1.073416e+00	-5.267231e-02
2.340000e-01	-5.109784e-01	5.145196e-01	-1.126855e+00	-1.074406e+00	-5.244912e-02
2.350000e-01	-5.115990e-01	5.151555e-01	-1.127649e+00	-1.075423e+00	-5.222551e-02
2.360000e-01	-5.122072e-01	5.157696e-01	-1.128463e+00	-1.076439e+00	-5.202423e-02
2.370000e-01	-5.128202e-01	5.163907e-01	-1.129287e+00	-1.077464e+00	-5.182359e-02
2.380000e-01	-5.134031e-01	5.169732e-01	-1.130105e+00	-1.078456e+00	-5.164966e-02
2.390000e-01	-5.139737e-01	5.175459e-01	-1.130907e+00	-1.079427e+00	-5.147976e-02
2.400000e-01	-5.145025e-01	5.180718e-01	-1.131678e+00	-1.080342e+00	-5.133648e-02
2.410000e-01	-5.150060e-01	5.185775e-01	-1.132403e+00	-1.081207e+00	-5.119540e-02
2.420000e-01	-5.154643e-01	5.190345e-01	-1.133085e+00	-1.082007e+00	-5.107814e-02
2.430000e-01	-5.158913e-01	5.194659e-01	-1.133702e+00	-1.082742e+00	-5.095987e-02
2.440000e-01	-5.162704e-01	5.198476e-01	-1.134268e+00	-1.083404e+00	-5.086376e-02
2.450000e-01	-5.166162e-01	5.202014e-01	-1.134768e+00	-1.084000e+00	-5.076762e-02
2.460000e-01	-5.169177e-01	5.205089e-01	-1.135225e+00	-1.084530e+00	-5.069485e-02
2.470000e-01	-5.171912e-01	5.207926e-01	-1.135622e+00	-1.085002e+00	-5.061965e-02
2.480000e-01	-5.174235e-01	5.210316e-01	-1.135975e+00	-1.085411e+00	-5.056403e-02
2.490000e-01	-5.176312e-01	5.212499e-01	-1.136274e+00	-1.085768e+00	-5.050568e-02
2.500000e-01	-5.178080e-01	5.214333e-01	-1.136549e+00	-1.086083e+00	-5.046649e-02
2.510000e-01	-5.179667e-01	5.216022e-01	-1.136773e+00	-1.086353e+00	-5.041963e-02
2.520000e-01	-5.181045e-01	5.217445e-01	-1.136991e+00	-1.086600e+00	-5.039110e-02
2.530000e-01	-5.182333e-01	5.218828e-01	-1.137171e+00	-1.086819e+00	-5.035199e-02
2.540000e-01	-5.183514e-01	5.220016e-01	-1.137366e+00	-1.087035e+00	-5.033183e-02
2.550000e-01	-5.184666e-01	5.221230e-01	-1.137535e+00	-1.087234e+00	-5.030103e-02
2.560000e-01	-5.185833e-01	5.222349e-01	-1.137745e+00	-1.087456e+00	-5.028932e-02
2.570000e-01	-5.186992e-01	5.223520e-01	-1.137922e+00	-1.087660e+00	-5.026169e-02
2.580000e-01	-5.188267e-01	5.224693e-01	-1.138161e+00	-1.087907e+00	-5.025387e-02
2.590000e-01	-5.189501e-01	5.225904e-01	-1.138352e+00	-1.088126e+00	-5.022597e-02
2.600000e-01	-5.190950e-01	5.227206e-01	-1.138619e+00	-1.088404e+00	-5.021427e-02
2.610000e-01	-5.192426e-01	5.228621e-01	-1.138849e+00	-1.088667e+00	-5.018206e-02
2.620000e-01	-5.194170e-01	5.230200e-01	-1.139161e+00	-1.088998e+00	-5.016367e-02
2.630000e-01	-5.195944e-01	5.231898e-01	-1.139439e+00	-1.089314e+00	-5.012521e-02
2.640000e-01	-5.197986e-01	5.233764e-01	-1.139804e+00	-1.089700e+00	-5.010324e-02
2.650000e-01	-5.199990e-01	5.235678e-01	-1.140126e+00	-1.090062e+00	-5.006388e-02
2.660000e-01	-5.202224e-01	5.237713e-01	-1.140531e+00	-1.090488e+00	-5.004332e-02
2.670000e-01	-5.204341e-01	5.239725e-01	-1.140880e+00	-1.090874e+00	-5.000574e-02
2.680000e-01	-5.206538e-01	5.241747e-01	-1.141277e+00	-1.091292e+00	-4.998485e-02
2.690000e-01	-5.208587e-01	5.243714e-01	-1.141609e+00	-1.091663e+00	-4.994557e-02
2.700000e-01	-5.210734e-01	5.245738e-01	-1.141991e+00	-1.092069e+00	-4.992192e-02
2.710000e-01	-5.212621e-01	5.247615e-01	-1.142283e+00	-1.092404e+00	-4.987933e-02
2.720000e-01	-5.214421e-01	5.249365e-01	-1.142596e+00	-1.092740e+00	-4.985604e-02
2.730000e-01	-5.215923e-01	5.250933e-01	-1.142817e+00	-1.093001e+00	-4.981600e-02
2.740000e-01	-5.217230e-01	5.252279e-01	-1.143036e+00	-1.093241e+00	-4.979522e-02
2.750000e-01	-5.218187e-01	5.253375e-01	-1.143153e+00	-1.093395e+00	-4.975790e-02
2.760000e-01	-5.218899e-01	5.254213e-01	-1.143261e+00	-1.093520e+00	-4.974072e-02
2.770000e-01	-5.219222e-01	5.254759e-01	-1.143256e+00	-1.093550e+00	-4.970567e-02
2.780000e-01	-5.219201e-01	5.254951e-01	-1.143223e+00	-1.093532e+00	-4.969159e-02
2.790000e-01	-5.218824e-01	5.254882e-01	-1.143088e+00	-1.093426e+00	-4.966138e-02
2.800000e-01	-5.218068e-01	5.254458e-01	-1.142913e+00	-1.093263e+00	-4.964981e-02
2.810000e-01	-5.216985e-01	5.253779e-01	-1.142640e+00	-1.093018e+00	-4.962138e-02
2.820000e-01	-5.215574e-01	5.252807e-01	-1.142337e+00	-1.092726e+00	-4.961124e-02
2.830000e-01	-5.213864e-01	5.251600e-01	-1.141938e+00	-1.092355e+00	-4.958254e-02
2.840000e-01	-5.211717e-01	5.249977e-01	-1.141486e+00	-1.091915e+00	-4.957105e-02
2.850000e-01	-5.209321e-01	5.248141e-01	-1.140955e+00	-1.091409e+00	-4.954530e-02
2.860000e-01	-5.206581e-01	5.245956e-01	-1.140390e+00	-1.090853e+00	-4.953665e-02
2.870000e-01	-5.203685e-01	5.243642e-01	-1.139760e+00	-1.090248e+00	-4.951149e-02
2.880000e-01	-5.200591e-01	5.241115e-01	-1.139125e+00	-1.089622e+00	-4.950352e-02
2.890000e-01	-5.197431e-01	5.238555e-01	-1.138440e+00	-1.088963e+00	-4.947670e-02
2.900000e-01	-5.194208e-01	5.235903e-01	-1.137772e+00	-1.088307e+00	-4.946536e-02
2.910000e-01	-5.190973e-01	5.233275e-01	-1.137065e+00	-1.087630e+00	-4.943521e-02
2.920000e-01	-5.187687e-01	5.230548e-01	-1.136380e+00	-1.086959e+00	-4.942121e-02
2.930000e-01	-5.184450e-01	5.227889e-01	-1.135667e+00	-1.086279e+00	-4.938858e-02
2.940000e-01	-5.181295e-01	5.225258e-01	-1.135006e+00	-1.085632e+00	-4.937347e-02
2.950000e-01	-5.178238e-01	5.222745e-01	-1.134321e+00	-1.084984e+00	-4.933679e-02
2.960000e-01	-5.175357e-01	5.220326e-01	-1.133706e+00	-1.084389e+00	-4.931711e-02
2.970000e-01	-5.172628e-01	5.218092e-01	-1.133081e+00	-1.083803e+00	-4.927758e-02
2.980000e-01	-5.170090e-01	5.215955e-01	-1.132532e+00	-1.083275e+00	-4.925686e-02
2.990000e-01	-5.167709e-01	5.214012e-01	-1.131976e+00	-1.082759e+00	-4.921691e-02
3.000000e-01	-5.165556e-01	5.212184e-01	-1.131507e+00	-1.082309e+00	-4.919770e-02
3.010000e-01	-5.163490e-01	5.210499e-01	-1.131017e+00	-1.081858e+00	-4.915946e-02
3.020000e-01	-5.161584e-01	5.208840e-01	-1.130601e+00	-1.081459e+00	-4.914185e-02
3.030000e-01	-5.159808e-01	5.207393e-01	-1.130173e+00	-1.081067e+00	-4.910554e-02
3.040000e-01	-5.158252e-01	5.206003e-01	-1.129831e+00	-1.080740e+00	-4.909013e-02
3.050000e-01	-5.156838e-01	5.204849e-01	-1.129479e+00	-1.080423e+00	-4.905591e-02
3.060000e-01	-5.155681e-01	5.203796e-01	-1.129222e+00	-1.080179e+00	-4.904298e-02
3.070000e-01	-5.154651e-01	5.202988e-01	-1.128950e+00	-1.079940e+00	-4.900998e-02
3.080000e-01	-5.153811e-01	5.202197e-01	-1.128763e+00	-1.079763e+00	-4.900063e-02
3.090000e-01	-5.153040e-01	5.201613e-01	-1.128553e+00	-1.079581e+00	-4.897257e-02
3.100000e-01	-5.152424e-01	5.200999e-01	-1.128421e+00	-1.079453e+00	-4.896800e-02
3.110000e-01	-5.151843e-01	5.200558e-01	-1.128258e+00	-1.079313e+00	-4.894471e-02
3.120000e-01	-5.151406e-01	5.200072e-01	-1.128177e+00	-1.079229e+00	-4.894798e-02
3.130000e-01	-5.150949e-01	5.199696e-01	-1.128057e+00	-1.079123e+00	-4.893355e-02
3.140000e-01	-5.150538e-01	5.199185e-01	-1.127997e+00	-1.079052e+00	-4.894471e-02
3.150000e-01	-5.150120e-01	5.198804e-01	-1.127900e+00	-1.078962e+00	-4.893808e-02
3.160000e-01	-5.149813e-01	5.198356e-01	-1.127877e+00	-1.078920e+00	-4.895745e-02
3.170000e-01	-5.149427e-01	5.197966e-01	-1.127799e+00	-1.078842e+00	-4.895668e-02
3.180000e-01	-5.149192e-01	5.197555e-01	-1.127804e+00	-1.078821e+00	-4.898263e-02
3.190000e-01	-5.148860e-01	5.197187e-01	-1.127743e+00	-1.078758e+00	-4.898562e-02
3.200000e-01	-5.148721e-01	5.196835e-01	-1.127776e+00	-1.078760e+00	-4.901607e-02
3.210000e-01	-5.148489e-01	5.196521e-01	-1.127750e+00	-1.078724e+00	-4.902622e-02
3.220000e-01	-5.148388e-01	5.196182e-01	-1.127803e+00	-1.078740e+00	-4.906250e-02
3.230000e-01	-5.148218e-01	5.195891e-01	-1.127798e+00	-1.078721e+00	-4.907723e-02
3.240000e-01	-5.148247e-01	5.195654e-01	-1.127886e+00	-1.078768e+00	-4.911835e-02
3.250000e-01	-5.148245e-01	5.195479e-01	-1.127924e+00	-1.078786e+00	-4.913747e-02
3.260000e-01	-5.148437e-01	5.195372e-01	-1.128050e+00	-1.078869e+00	-4.918133e-02
3.270000e-01	-5.148621e-01	5.195346e-01	-1.128132e+00	-1.078928e+00	-4.920387e-02
3.280000e-01	-5.148973e-01	5.195379e-01	-1.128295e+00	-1.079045e+00	-4.924999e-02
3.290000e-01	-5.149302e-01	5.195460e-01	-1.128411e+00	-1.079136e+00	-4.927551e-02
3.300000e-01	-5.149815e-01	5.195636e-01	-1.128611e+00	-1.079287e+00	-4.932409e-02
3.310000e-01	-5.150341e-01	5.195892e-01	-1.128769e+00	-1.079419e+00	-4.935040e-02
3.320000e-01	-5.151023e-01	5.196220e-01	-1.129005e+00	-1.079605e+00	-4.940010e-02
3.330000e-01	-5.151701e-01	5.196608e-01	-1.129199e+00	-1.079769e+00	-4.942918e-02
3.340000e-01	-5.152543e-01	5.197087e-01	-1.129467e+00	-1.079988e+00	-4.947938e-02
3.350000e-01	-5.153364e-01	5.197618e-01	-1.129688e+00	-1.080180e+00	-4.950753e-02
3.360000e-01	-5.154333e-01	5.198215e-01	-1.129985e+00	-1.080426e+00	-4.955902e-02
3.370000e-01	-5.155255e-01	5.198847e-01	-1.130228e+00	-1.080640e+00	-4.958863e-02
3.380000e-01	-5.156288e-01	5.199506e-01	-1.130538e+00	-1.080898e+00	-4.964033e-02
3.390000e-01	-5.157274e-01	5.200221e-01	-1.130793e+00	-1.081124e+00	-4.966915e-02
3.400000e-01	-5.158377e-01	5.200957e-01	-1.131114e+00	-1.081395e+00	-4.971939e-02
3.410000e-01	-5.159385e-01	5.201706e-01	-1.131372e+00	-1.081625e+00	-4.974769e-02
3.420000e-01	-5.160469e-01	5.202432e-01	-1.131690e+00	-1.081892e+00	-4.979835e-02
3.430000e-01	-5.161407e-01	5.203131e-01	-1.131936e+00	-1.082109e+00	-4.982740e-02
3.440000e-01	-5.162408e-01	5.203793e-01	-1.132238e+00	-1.082360e+00	-4.987840e-02
3.450000e-01	-5.163272e-01	5.204444e-01	-1.132469e+00	-1.082562e+00	-4.990729e-02
3.460000e-01	-5.164219e-01	5.205082e-01	-1.132754e+00	-1.082799e+00	-4.995533e-02
3.470000e-01	-5.165006e-01	5.205696e-01	-1.132962e+00	-1.082982e+00	-4.998049e-02
3.480000e-01	-5.165855e-01	5.206271e-01	-1.133224e+00	-1.083198e+00	-5.002660e-02
3.490000e-01	-5.166504e-01	5.206785e-01	-1.133401e+00	-1.083351e+00	-5.005028e-02
3.500000e-01	-5.167205e-01	5.207239e-01	-1.133629e+00	-1.083535e+00	-5.009423e-02
3.510000e-01	-5.167677e-01	5.207615e-01	-1.133768e+00	-1.083652e+00	-5.011626e-02
3.520000e-01	-5.168211e-01	5.207936e-01	-1.133958e+00	-1.083800e+00	-5.015818e-02
3.530000e-01	-5.168527e-01	5.208192e-01	-1.134061e+00	-1.083883e+00	-5.017764e-02
3.540000e-01	-5.168943e-01	5.208438e-01	-1.134220e+00	-1.084004e+00	-5.021550e-02
3.550000e-01	-5.169131e-01	5.208606e-01	-1.134286e+00	-1.084056e+00	-5.022977e-02
3.560000e-01	-5.169379e-01	5.208729e-01	-1.134402e+00	-1.084139e+00	-5.026311e-02
3.570000e-01	-5.169426e-01	5.208781e-01	-1.134436e+00	-1.084161e+00	-5.027530e-02
3.580000e-01	-5.169502e-01	5.208773e-01	-1.134511e+00	-1.084206e+00	-5.030503e-02
3.590000e-01	-5.169406e-01	5.208710e-01	-1.134507e+00	-1.084194e+00	-5.031272e-02
3.600000e-01	-5.169383e-01	5.208651e-01	-1.134552e+00	-1.084214e+00	-5.033777e-02