# Forces     
# CofR       : (0.000000e+00 0.000000e+00 0.000000e+00)
# Time       forces(pressure viscous porous) moment(pressure viscous porous)
1.000000e-03	((1.384752e+00 -2.142777e+00 -1.228863e-04) (6.108103e-03 -2.974526e-05 5.574013e-07) (0.000000e+00 0.000000e+00 0.000000e+00)) ((6.371399e-05 1.448620e-05 -5.680125e-01) (-1.818130e-07 -1.208560e-06 1.356309e-04) (0.000000e+00 0.000000e+00 0.000000e+00))
2.000000e-03	((9.314144e+00 -1.484030e+01 -7.220428e-04) (7.670462e-03 1.350986e-03 5.170181e-06) (0.000000e+00 0.000000e+00 0.000000e+00)) ((-9.216781e-04 -4.368734e-04 -3.698403e+00) (-8.508811e-07 -4.543307e-06 7.198865e-04) (0.000000e+00 0.000000e+00 0.000000e+00))
3.000000e-03	((1.603852e+01 -2.681408e+01 -8.075800e-04) (9.828583e-03 2.499518e-03 6.069898e-06) (0.000000e+00 0.000000e+00 0.000000e+00)) ((-1.574556e-03 -1.370625e-03 -6.371620e+00) (-4.595658e-06 3.133567e-06 1.193249e-03) (0.000000e+00 0.000000e+00 0.000000e+00))
4.000000e-03	((1.774387e+01 -3.109601e+01 -1.474262e-03) (1.310490e-02 4.147981e-03 4.618743e-06) (0.000000e+00 0.000000e+00 0.000000e+00)) ((3.497872e-03 -1.050232e-03 -7.068534e+00) (-5.089810e-06 4.187135e-06 1.910470e-03) (0.000000e+00 0.000000e+00 0.000000e+00))
5.000000e-03	((1.788472e+01 -3.358009e+01 -2.223029e-03) (1.610440e-02 5.438068e-03 1.001370e-05) (0.000000e+00 0.000000e+00 0.000000e+00)) ((2.255212e-02 3.745734e-03 -7.212255e+00) (-2.023782e-06 2.091266e-05 2.543932e-03) (0.000000e+00 0.000000e+00 0.000000e+00))
6.000000e-03	((1.814271e+01 -3.680151e+01 -4.380864e-03) (1.839918e-02 6.558026e-03 3.926265e-06) (0.000000e+00 0.000000e+00 0.000000e+00)) ((6.687915e-02 1.900950e-02 -7.484730e+00) (-1.474561e-06 2.065504e-05 3.065235e-03) (0.000000e+00 0.000000e+00 0.000000e+00))
7.000000e-03	((1.890166e+01 -4.111205e+01 -4.035936e-03) (2.014096e-02 7.249039e-03 -1.096139e-06) (0.000000e+00 0.000000e+00 0.000000e+00)) ((8.398602e-02 2.292359e-02 -8.009413e+00) (5.723261e-07 1.708558e-05 3.403707e-03) (0.000000e+00 0.000000e+00 0.000000e+00))
8.000000e-03	((2.124669e+01 -4.800895e+01 -2.864958e-03) (2.153107e-02 7.777171e-03 -1.031028e-05) (0.000000e+00 0.000000e+00 0.000000e+00)) ((9.578915e-02 2.739482e-02 -9.195552e+00) (5.484208e-07 1.839736e-05 3.666024e-03) (0.000000e+00 0.000000e+00 0.000000e+00))
9.000000e-03	((2.476111e+01 -5.680113e+01 -5.985291e-04) (2.283852e-02 8.159446e-03 -2.105343e-05) (0.000000e+00 0.000000e+00 0.000000e+00)) ((8.609598e-02 2.285510e-02 -1.085570e+01) (-4.220986e-07 2.014520e-05 3.873255e-03) (0.000000e+00 0.000000e+00 0.000000e+00))
1.000000e-02	((2.865343e+01 -6.609823e+01 1.196531e-03) (2.410441e-02 8.419056e-03 -2.739495e-05) (0.000000e+00 0.000000e+00 0.000000e+00)) ((6.673983e-02 1.551889e-02 -1.264829e+01) (-2.829390e-06 1.847544e-05 4.051694e-03) (0.000000e+00 0.000000e+00 0.000000e+00))
1.100000e-02	((3.213341e+01 -7.467124e+01 1.451020e-03) (2.533422e-02 8.624528e-03 -2.865891e-05) (0.000000e+00 0.000000e+00 0.000000e+00)) ((4.668886e-02 1.181522e-02 -1.426143e+01) (-4.250526e-06 1.585329e-05 4.217340e-03) (0.000000e+00 0.000000e+00 0.000000e+00))
1.200000e-02	((3.545790e+01 -8.291577e+01 1.214950e-03) (2.660078e-02 8.793298e-03 -3.248116e-05) (0.000000e+00 0.000000e+00 0.000000e+00)) ((4.915215e-02 1.774735e-02 -1.579242e+01) (-5.727140e-06 1.299665e-05 4.378355e-03) (0.000000e+00 0.000000e+00 0.000000e+00))
1.300000e-02	((3.844650e+01 -9.062397e+01 9.766784e-04) (2.782258e-02 8.932309e-03 -3.431656e-05) (0.000000e+00 0.000000e+00 0.000000e+00)) ((7.342917e-02 3.268735e-02 -1.717717e+01) (-5.716433e-06 1.081309e-05 4.533086e-03) (0.000000e+00 0.000000e+00 0.000000e+00))
1.400000e-02	((4.139308e+01 -9.830241e+01 5.918882e-04) (2.902868e-02 9.097967e-03 -4.396908e-05) (0.000000e+00 0.000000e+00 0.000000e+00)) ((9.972757e-02 4.605492e-02 -1.853751e+01) (-5.220204e-06 8.685275e-06 4.695142e-03) (0.000000e+00 0.000000e+00 0.000000e+00))
1.500000e-02	((4.508548e+01 -1.073373e+02 3.652164e-04) (3.026104e-02 9.299833e-03 -5.102330e-05) (0.000000e+00 0.000000e+00 0.000000e+00)) ((1.008349e-01 5.024569e-02 -2.019819e+01) (-2.926193e-06 9.083832e-06 4.869430e-03) (0.000000e+00 0.000000e+00 0.000000e+00))
1.600000e-02	((4.992791e+01 -1.186554e+02 -2.218932e-04) (3.155920e-02 9.542747e-03 -5.803002e-05) (0.000000e+00 0.000000e+00 0.000000e+00)) ((9.442068e-02 4.706719e-02 -2.234358e+01) (-1.211022e-06 8.970648e-06 5.057704e-03) (0.000000e+00 0.000000e+00 0.000000e+00))
1.700000e-02	((5.578195e+01 -1.322112e+02 -6.853722e-04) (3.292833e-02 9.807491e-03 -6.067060e-05) (0.000000e+00 0.000000e+00 0.000000e+00)) ((6.540194e-02 3.660636e-02 -2.493600e+01) (4.534507e-07 8.031252e-06 5.254265e-03) (0.000000e+00 0.000000e+00 0.000000e+00))
1.800000e-02	((6.223721e+01 -1.474214e+02 2.672782e-04) (3.438066e-02 1.007716e-02 -6.292866e-05) (0.000000e+00 0.000000e+00 0.000000e+00)) ((2.598151e-02 1.773196e-02 -2.781849e+01) (3.748132e-07 8.933296e-06 5.458082e-03) (0.000000e+00 0.000000e+00 0.000000e+00))
1.900000e-02	((6.864035e+01 -1.631664e+02 2.244923e-03) (3.586086e-02 1.032648e-02 -6.117961e-05) (0.000000e+00 0.000000e+00 0.000000e+00)) ((-1.315809e-03 4.263759e-03 -3.072240e+01) (5.540300e-07 8.005855e-06 5.658465e-03) (0.000000e+00 0.000000e+00 0.000000e+00))
2.000000e-02	((7.477642e+01 -1.790173e+02 2.074038e-03) (3.731418e-02 1.053979e-02 -6.087387e-05) (0.000000e+00 0.000000e+00 0.000000e+00)) ((-9.871531e-03 -1.945801e-03 -3.356061e+01) (2.726236e-07 8.063962e-06 5.848658e-03) (0.000000e+00 0.000000e+00 0.000000e+00))
2.100000e-02	((8.045837e+01 -1.944263e+02 3.038312e-04) (3.869587e-02 1.071006e-02 -6.179743e-05) (0.000000e+00 0.000000e+00 0.000000e+00)) ((-4.874332e-03 9.838206e-04 -3.624031e+01) (1.224795e-06 7.871153e-06 6.025408e-03) (0.000000e+00 0.000000e+00 0.000000e+00))
2.200000e-02	((8.574721e+01 -2.093440e+02 -2.478724e-03) (3.998421e-02 1.084463e-02 -6.235580e-05) (0.000000e+00 0.000000e+00 0.000000e+00)) ((6.560224e-03 5.658804e-03 -3.877706e+01) (1.646239e-06 7.237317e-06 6.188954e-03) (0.000000e+00 0.000000e+00 0.000000e+00))
2.300000e-02	((9.106297e+01 -2.244069e+02 -5.665958e-03) (4.122539e-02 1.100653e-02 -6.342371e-05) (0.000000e+00 0.000000e+00 0.000000e+00)) ((-8.347906e-03 5.669683e-03 -4.133785e+01) (3.407549e-06 5.974657e-06 6.360371e-03) (0.000000e+00 0.000000e+00 0.000000e+00))
2.400000e-02	((9.685238e+01 -2.405040e+02 -9.898199e-03) (4.245500e-02 1.119570e-02 -7.383908e-05) (0.000000e+00 0.000000e+00 0.000000e+00)) ((-6.928055e-03 9.984776e-03 -4.411855e+01) (4.570504e-06 6.461521e-06 6.540672e-03) (0.000000e+00 0.000000e+00 0.000000e+00))
2.500000e-02	((1.032754e+02 -2.577230e+02 -1.326584e-02) (4.366727e-02 1.140316e-02 -8.597296e-05) (0.000000e+00 0.000000e+00 0.000000e+00)) ((-3.376150e-03 1.413124e-02 -4.716658e+01) (8.391485e-06 7.643606e-06 6.727034e-03) (0.000000e+00 0.000000e+00 0.000000e+00))
2.600000e-02	((1.106179e+02 -2.768104e+02 -1.345696e-02) (4.488618e-02 1.161779e-02 -9.698644e-05) (0.000000e+00 0.000000e+00 0.000000e+00)) ((1.618481e-02 1.726397e-02 -5.061722e+01) (8.586845e-06 1.021115e-05 6.916067e-03) (0.000000e+00 0.000000e+00 0.000000e+00))
2.700000e-02	((1.187324e+02 -2.975132e+02 -1.190266e-02) (4.608433e-02 1.181021e-02 -1.072862e-04) (0.000000e+00 0.000000e+00 0.000000e+00)) ((1.686493e-02 1.727156e-02 -5.440029e+01) (1.193638e-05 1.063542e-05 7.100654e-03) (0.000000e+00 0.000000e+00 0.000000e+00))
2.800000e-02	((1.275686e+02 -3.198862e+02 -1.003484e-02) (4.727663e-02 1.198347e-02 -1.121504e-04) (0.000000e+00 0.000000e+00 0.000000e+00)) ((8.834083e-03 1.036392e-02 -5.850074e+01) (1.100307e-05 1.140834e-05 7.281664e-03) (0.000000e+00 0.000000e+00 0.000000e+00))
2.900000e-02	((1.367442e+02 -3.432904e+02 -8.603742e-03) (4.844052e-02 1.212273e-02 -1.216015e-04) (0.000000e+00 0.000000e+00 0.000000e+00)) ((-1.824569e-02 -1.654707e-03 -6.275900e+01) (1.158313e-05 1.444831e-05 7.454555e-03) (0.000000e+00 0.000000e+00 0.000000e+00))
3.000000e-02	((1.460829e+02 -3.673492e+02 -6.621767e-03) (4.952615e-02 1.221833e-02 -1.284980e-04) (0.000000e+00 0.000000e+00 0.000000e+00)) ((-5.214247e-02 -2.117369e-02 -6.709551e+01) (9.883349e-06 1.767202e-05 7.614242e-03) (0.000000e+00 0.000000e+00 0.000000e+00))
3.100000e-02	((1.554387e+02 -3.916072e+02 -4.756194e-03) (5.044004e-02 1.224546e-02 -1.382802e-04) (0.000000e+00 0.000000e+00 0.000000e+00)) ((-1.054244e-01 -4.293290e-02 -7.143932e+01) (9.287272e-06 1.832460e-05 7.750556e-03) (0.000000e+00 0.000000e+00 0.000000e+00))
3.200000e-02	((1.648907e+02 -4.161179e+02 -2.774710e-03) (5.118058e-02 1.222155e-02 -1.441107e-04) (0.000000e+00 0.000000e+00 0.000000e+00)) ((-1.444116e-01 -6.331582e-02 -7.582695e+01) (6.252935e-06 2.299878e-05 7.867893e-03) (0.000000e+00 0.000000e+00 0.000000e+00))
3.300000e-02	((1.745587e+02 -4.410119e+02 -1.628173e-03) (5.192622e-02 1.224761e-02 -1.464325e-04) (0.000000e+00 0.000000e+00 0.000000e+00)) ((-1.322260e-01 -5.896834e-02 -8.031057e+01) (4.685297e-06 2.454521e-05 7.997909e-03) (0.000000e+00 0.000000e+00 0.000000e+00))
3.400000e-02	((1.846813e+02 -4.666350e+02 -4.326064e-03) (5.266704e-02 1.228658e-02 -1.420441e-04) (0.000000e+00 0.000000e+00 0.000000e+00)) ((-1.556699e-01 -6.472120e-02 -8.499061e+01) (3.651182e-06 2.306684e-05 8.129972e-03) (0.000000e+00 0.000000e+00 0.000000e+00))
3.500000e-02	((1.952922e+02 -4.931335e+02 -4.644739e-03) (5.352623e-02 1.238624e-02 -1.344248e-04) (0.000000e+00 0.000000e+00 0.000000e+00)) ((-1.849169e-01 -7.149961e-02 -8.987808e+01) (6.325076e-06 1.448811e-05 8.281662e-03) (0.000000e+00 0.000000e+00 0.000000e+00))
3.600000e-02	((2.064494e+02 -5.206223e+02 -3.546354e-03) (5.457403e-02 1.254625e-02 -1.312722e-04) (0.000000e+00 0.000000e+00 0.000000e+00)) ((-2.234025e-01 -8.553567e-02 -9.499007e+01) (3.255591e-06 1.028282e-05 8.458847e-03) (0.000000e+00 0.000000e+00 0.000000e+00))
3.700000e-02	((2.180417e+02 -5.488913e+02 -3.647371e-03) (5.563494e-02 1.274647e-02 -1.361676e-04) (0.000000e+00 0.000000e+00 0.000000e+00)) ((-2.661438e-01 -9.878669e-02 -1.002789e+02) (2.651590e-06 1.090499e-05 8.642682e-03) (0.000000e+00 0.000000e+00 0.000000e+00))
3.800000e-02	((2.300703e+02 -5.778961e+02 -8.291133e-04) (5.672232e-02 1.297222e-02 -1.287748e-04) (0.000000e+00 0.000000e+00 0.000000e+00)) ((-2.945449e-01 -1.101381e-01 -1.057432e+02) (4.495379e-07 5.456966e-06 8.832959e-03) (0.000000e+00 0.000000e+00 0.000000e+00))
3.900000e-02	((2.425564e+02 -6.076468e+02 1.744455e-03) (5.784964e-02 1.324043e-02 -1.155763e-04) (0.000000e+00 0.000000e+00 0.000000e+00)) ((-2.963672e-01 -1.115799e-01 -1.113996e+02) (-2.682610e-07 -7.601180e-06 9.033031e-03) (0.000000e+00 0.000000e+00 0.000000e+00))
4.000000e-02	((2.554667e+02 -6.380554e+02 6.097217e-03) (5.912606e-02 1.352476e-02 -9.681440e-05) (0.000000e+00 0.000000e+00 0.000000e+00)) ((-2.684565e-01 -1.150505e-01 -1.172387e+02) (-3.147279e-06 -1.815772e-05 9.248608e-03) (0.000000e+00 0.000000e+00 0.000000e+00))
4.100000e-02	((2.685403e+02 -6.687690e+02 1.115861e-02) (6.048702e-02 1.382929e-02 -9.431391e-05) (0.000000e+00 0.000000e+00 0.000000e+00)) ((-2.696666e-01 -1.286054e-01 -1.231534e+02) (-8.304172e-07 -1.899225e-05 9.473204e-03) (0.000000e+00 0.000000e+00 0.000000e+00))
4.200000e-02	((2.817541e+02 -6.996011e+02 1.493904e-02) (6.189360e-02 1.415944e-02 -8.567262e-05) (0.000000e+00 0.000000e+00 0.000000e+00)) ((-2.445352e-01 -1.414487e-01 -1.291286e+02) (-3.056407e-07 -2.188080e-05 9.702682e-03) (0.000000e+00 0.000000e+00 0.000000e+00))
4.300000e-02	((2.952149e+02 -7.308466e+02 1.661114e-02) (6.333081e-02 1.453836e-02 -7.023841e-05) (0.000000e+00 0.000000e+00 0.000000e+00)) ((-2.533712e-01 -1.590590e-01 -1.352204e+02) (6.216395e-07 -2.797827e-05 9.940181e-03) (0.000000e+00 0.000000e+00 0.000000e+00))
4.400000e-02	((3.089530e+02 -7.623707e+02 1.863202e-02) (6.481123e-02 1.492787e-02 -6.024599e-05) (0.000000e+00 0.000000e+00 0.000000e+00)) ((-2.562971e-01 -1.831056e-01 -1.414350e+02) (-1.561379e-07 -3.277475e-05 1.018177e-02) (0.000000e+00 0.000000e+00 0.000000e+00))
4.500000e-02	((3.228897e+02 -7.939114e+02 1.581272e-02) (6.633229e-02 1.534072e-02 -5.053866e-05) (0.000000e+00 0.000000e+00 0.000000e+00)) ((-2.504111e-01 -1.870443e-01 -1.477317e+02) (-3.271333e-07 -3.802253e-05 1.043058e-02) (0.000000e+00 0.000000e+00 0.000000e+00))
4.600000e-02	((3.371526e+02 -8.256812e+02 1.643222e-02) (6.789747e-02 1.577726e-02 -4.498686e-05) (0.000000e+00 0.000000e+00 0.000000e+00)) ((-1.802020e-01 -1.734922e-01 -1.541670e+02) (1.123311e-06 -4.392786e-05 1.068387e-02) (0.000000e+00 0.000000e+00 0.000000e+00))
4.700000e-02	((3.512309e+02 -8.562579e+02 1.647406e-02) (6.952137e-02 1.624307e-02 -2.693032e-05) (0.000000e+00 0.000000e+00 0.000000e+00)) ((-1.242750e-01 -1.544068e-01 -1.604809e+02) (1.069897e-06 -5.360738e-05 1.094579e-02) (0.000000e+00 0.000000e+00 0.000000e+00))
4.800000e-02	((3.651026e+02 -8.857296e+02 1.746366e-02) (7.121606e-02 1.674378e-02 -2.780076e-05) (0.000000e+00 0.000000e+00 0.000000e+00)) ((-7.550696e-02 -1.417884e-01 -1.666792e+02) (2.357887e-06 -5.663475e-05 1.121702e-02) (0.000000e+00 0.000000e+00 0.000000e+00))
4.900000e-02	((3.789607e+02 -9.143063e+02 1.670816e-02) (7.298541e-02 1.728473e-02 -1.691294e-05) (0.000000e+00 0.000000e+00 0.000000e+00)) ((-5.033229e-02 -1.223093e-01 -1.728306e+02) (4.141062e-06 -6.311660e-05 1.149974e-02) (0.000000e+00 0.000000e+00 0.000000e+00))
5.000000e-02	((3.926960e+02 -9.421094e+02 1.910896e-02) (7.482909e-02 1.787550e-02 -1.681833e-05) (0.000000e+00 0.000000e+00 0.000000e+00)) ((-2.840837e-02 -1.104480e-01 -1.789129e+02) (5.938262e-06 -6.751243e-05 1.179503e-02) (0.000000e+00 0.000000e+00 0.000000e+00))
5.100000e-02	((4.062610e+02 -9.691325e+02 2.167218e-02) (7.673368e-02 1.850933e-02 -1.100776e-05) (0.000000e+00 0.000000e+00 0.000000e+00)) ((1.893448e-02 -8.071712e-02 -1.849050e+02) (6.471489e-06 -7.190003e-05 1.210204e-02) (0.000000e+00 0.000000e+00 0.000000e+00))
5.200000e-02	((4.195374e+02 -9.954186e+02 2.453032e-02) (7.868490e-02 1.917172e-02 -7.202041e-06) (0.000000e+00 0.000000e+00 0.000000e+00)) ((1.487441e-02 -6.375797e-02 -1.907688e+02) (8.002997e-06 -7.612576e-05 1.241598e-02) (0.000000e+00 0.000000e+00 0.000000e+00))
5.300000e-02	((4.323436e+02 -1.020502e+03 2.559865e-02) (8.064465e-02 1.986283e-02 -6.709260e-06) (0.000000e+00 0.000000e+00 0.000000e+00)) ((-1.439001e-02 -4.698417e-02 -1.964162e+02) (9.464702e-06 -7.953297e-05 1.273605e-02) (0.000000e+00 0.000000e+00 0.000000e+00))
5.400000e-02	((4.444334e+02 -1.043808e+03 3.016636e-02) (8.260964e-02 2.057445e-02 -1.577280e-05) (0.000000e+00 0.000000e+00 0.000000e+00)) ((-5.909323e-02 -3.832442e-02 -2.017336e+02) (1.129319e-05 -8.285844e-05 1.306082e-02) (0.000000e+00 0.000000e+00 0.000000e+00))
5.500000e-02	((4.554836e+02 -1.064405e+03 3.485554e-02) (8.455306e-02 2.132372e-02 -1.601754e-05) (0.000000e+00 0.000000e+00 0.000000e+00)) ((-9.689742e-02 -2.098533e-02 -2.065580e+02) (1.248805e-05 -8.909257e-05 1.339164e-02) (0.000000e+00 0.000000e+00 0.000000e+00))
5.600000e-02	((4.658128e+02 -1.083023e+03 3.764194e-02) (8.649479e-02 2.210309e-02 -2.450263e-05) (0.000000e+00 0.000000e+00 0.000000e+00)) ((-1.473383e-01 -5.072639e-04 -2.110427e+02) (1.497775e-05 -9.276916e-05 1.372884e-02) (0.000000e+00 0.000000e+00 0.000000e+00))
5.700000e-02	((4.753056e+02 -1.099438e+03 4.146612e-02) (8.842595e-02 2.292577e-02 -2.625097e-05) (0.000000e+00 0.000000e+00 0.000000e+00)) ((-1.968274e-01 2.114971e-02 -2.151326e+02) (1.519140e-05 -9.644614e-05 1.407364e-02) (0.000000e+00 0.000000e+00 0.000000e+00))
5.800000e-02	((4.843068e+02 -1.114448e+03 4.618254e-02) (9.035892e-02 2.377542e-02 -2.406373e-05) (0.000000e+00 0.000000e+00 0.000000e+00)) ((-2.417746e-01 4.447263e-02 -2.189916e+02) (1.639675e-05 -1.007615e-04 1.442526e-02) (0.000000e+00 0.000000e+00 0.000000e+00))
5.900000e-02	((4.929515e+02 -1.128471e+03 5.030290e-02) (9.229297e-02 2.466186e-02 -1.151881e-05) (0.000000e+00 0.000000e+00 0.000000e+00)) ((-2.972582e-01 5.887159e-02 -2.226851e+02) (1.646959e-05 -1.078976e-04 1.478559e-02) (0.000000e+00 0.000000e+00 0.000000e+00))
6.000000e-02	((5.014300e+02 -1.142137e+03 5.255686e-02) (9.422542e-02 2.554983e-02 -6.386014e-06) (0.000000e+00 0.000000e+00 0.000000e+00)) ((-3.609618e-01 6.112248e-02 -2.263170e+02) (2.105892e-05 -1.168439e-04 1.514768e-02) (0.000000e+00 0.000000e+00 0.000000e+00))
6.100000e-02	((5.097192e+02 -1.155592e+03 5.541735e-02) (9.614282e-02 2.643653e-02 9.138303e-06) (0.000000e+00 0.000000e+00 0.000000e+00)) ((-4.287632e-01 5.333696e-02 -2.298887e+02) (2.071457e-05 -1.284689e-04 1.550802e-02) (0.000000e+00 0.000000e+00 0.000000e+00))
6.200000e-02	((5.178171e+02 -1.169045e+03 6.011254e-02) (9.803483e-02 2.729815e-02 8.388564e-06) (0.000000e+00 0.000000e+00 0.000000e+00)) ((-4.975803e-01 3.402903e-02 -2.334138e+02) (2.614164e-05 -1.362319e-04 1.586209e-02) (0.000000e+00 0.000000e+00 0.000000e+00))
6.300000e-02	((5.257337e+02 -1.182611e+03 6.517641e-02) (9.989955e-02 2.814900e-02 2.883960e-05) (0.000000e+00 0.000000e+00 0.000000e+00)) ((-5.514934e-01 1.245985e-02 -2.369005e+02) (2.742770e-05 -1.482840e-04 1.620964e-02) (0.000000e+00 0.000000e+00 0.000000e+00))
6.400000e-02	((5.334786e+02 -1.196390e+03 6.929045e-02) (1.017386e-01 2.895733e-02 3.869644e-05) (0.000000e+00 0.000000e+00 0.000000e+00)) ((-5.819534e-01 -8.827517e-03 -2.403593e+02) (2.948695e-05 -1.555180e-04 1.654600e-02) (0.000000e+00 0.000000e+00 0.000000e+00))
6.500000e-02	((5.411851e+02 -1.210683e+03 7.248692e-02) (1.035426e-01 2.975236e-02 6.276169e-05) (0.000000e+00 0.000000e+00 0.000000e+00)) ((-5.757761e-01 -2.040289e-02 -2.438473e+02) (3.049131e-05 -1.676564e-04 1.687600e-02) (0.000000e+00 0.000000e+00 0.000000e+00))
6.600000e-02	((5.488435e+02 -1.225607e+03 7.965034e-02) (1.053190e-01 3.049969e-02 7.328285e-05) (0.000000e+00 0.000000e+00 0.000000e+00)) ((-5.058834e-01 -7.205811e-03 -2.473646e+02) (3.611280e-05 -1.772267e-04 1.719440e-02) (0.000000e+00 0.000000e+00 0.000000e+00))
6.700000e-02	((5.563822e+02 -1.240957e+03 8.505585e-02) (1.070565e-01 3.122060e-02 9.908518e-05) (0.000000e+00 0.000000e+00 0.000000e+00)) ((-4.035872e-01 1.855512e-02 -2.508666e+02) (3.761669e-05 -1.883860e-04 1.750301e-02) (0.000000e+00 0.000000e+00 0.000000e+00))
6.800000e-02	((5.635346e+02 -1.256320e+03 9.290309e-02) (1.087624e-01 3.189238e-02 1.068158e-04) (0.000000e+00 0.000000e+00 0.000000e+00)) ((-3.134757e-01 3.084136e-02 -2.542342e+02) (4.436016e-05 -1.973701e-04 1.779969e-02) (0.000000e+00 0.000000e+00 0.000000e+00))
6.900000e-02	((5.704159e+02 -1.271836e+03 1.015657e-01) (1.103908e-01 3.254663e-02 1.246285e-04) (0.000000e+00 0.000000e+00 0.000000e+00)) ((-2.609055e-01 2.998185e-02 -2.575105e+02) (4.723646e-05 -2.084942e-04 1.808617e-02) (0.000000e+00 0.000000e+00 0.000000e+00))
7.000000e-02	((5.769472e+02 -1.287347e+03 1.085084e-01) (1.119810e-01 3.317400e-02 1.330912e-04) (0.000000e+00 0.000000e+00 0.000000e+00)) ((-2.364874e-01 1.564742e-02 -2.606592e+02) (5.375831e-05 -2.134174e-04 1.836521e-02) (0.000000e+00 0.000000e+00 0.000000e+00))
7.100000e-02	((5.832055e+02 -1.302796e+03 1.137390e-01) (1.135164e-01 3.380341e-02 1.369511e-04) (0.000000e+00 0.000000e+00 0.000000e+00)) ((-2.498009e-01 -1.547920e-02 -2.636999e+02) (5.901820e-05 -2.170058e-04 1.864125e-02) (0.000000e+00 0.000000e+00 0.000000e+00))
7.200000e-02	((5.893403e+02 -1.318389e+03 1.175114e-01) (1.150243e-01 3.441165e-02 1.422581e-04) (0.000000e+00 0.000000e+00 0.000000e+00)) ((-2.958947e-01 -5.785908e-02 -2.667021e+02) (6.279370e-05 -2.178227e-04 1.891301e-02) (0.000000e+00 0.000000e+00 0.000000e+00))
7.300000e-02	((5.954064e+02 -1.334076e+03 1.179664e-01) (1.164298e-01 3.498611e-02 1.517251e-04) (0.000000e+00 0.000000e+00 0.000000e+00)) ((-3.716053e-01 -1.069152e-01 -2.696853e+02) (6.607160e-05 -2.190170e-04 1.917029e-02) (0.000000e+00 0.000000e+00 0.000000e+00))
7.400000e-02	((6.014132e+02 -1.349880e+03 1.185798e-01) (1.177604e-01 3.550101e-02 1.732090e-04) (0.000000e+00 0.000000e+00 0.000000e+00)) ((-4.416612e-01 -1.485740e-01 -2.726602e+02) (6.503306e-05 -2.244777e-04 1.940987e-02) (0.000000e+00 0.000000e+00 0.000000e+00))
7.500000e-02	((6.074636e+02 -1.366026e+03 1.228248e-01) (1.190092e-01 3.596832e-02 1.894318e-04) (0.000000e+00 0.000000e+00 0.000000e+00)) ((-4.772184e-01 -1.670206e-01 -2.756701e+02) (6.720444e-05 -2.242824e-04 1.963177e-02) (0.000000e+00 0.000000e+00 0.000000e+00))
7.600000e-02	((6.134269e+02 -1.382394e+03 1.298101e-01) (1.202255e-01 3.638465e-02 2.114493e-04) (0.000000e+00 0.000000e+00 0.000000e+00)) ((-5.000588e-01 -1.765375e-01 -2.786651e+02) (6.358716e-05 -2.175947e-04 1.984029e-02) (0.000000e+00 0.000000e+00 0.000000e+00))
7.700000e-02	((6.194665e+02 -1.399287e+03 1.322425e-01) (1.214014e-01 3.677030e-02 2.228725e-04) (0.000000e+00 0.000000e+00 0.000000e+00)) ((-5.248401e-01 -1.856810e-01 -2.817181e+02) (6.201009e-05 -2.109221e-04 2.003730e-02) (0.000000e+00 0.000000e+00 0.000000e+00))
7.800000e-02	((6.254464e+02 -1.416439e+03 1.310015e-01) (1.224923e-01 3.709998e-02 2.299929e-04) (0.000000e+00 0.000000e+00 0.000000e+00)) ((-5.659236e-01 -1.995150e-01 -2.847718e+02) (5.931320e-05 -2.048026e-04 2.021679e-02) (0.000000e+00 0.000000e+00 0.000000e+00))
7.900000e-02	((6.315299e+02 -1.433972e+03 1.324315e-01) (1.235238e-01 3.742871e-02 2.413107e-04) (0.000000e+00 0.000000e+00 0.000000e+00)) ((-5.599196e-01 -1.901142e-01 -2.878870e+02) (5.561340e-05 -1.998320e-04 2.038933e-02) (0.000000e+00 0.000000e+00 0.000000e+00))
8.000000e-02	((6.377834e+02 -1.451781e+03 1.380328e-01) (1.244747e-01 3.767735e-02 2.478919e-04) (0.000000e+00 0.000000e+00 0.000000e+00)) ((-5.373226e-01 -1.781281e-01 -2.910771e+02) (4.850601e-05 -1.923597e-04 2.053799e-02) (0.000000e+00 0.000000e+00 0.000000e+00))
8.100000e-02	((6.442655e+02 -1.469785e+03 1.435129e-01) (1.253623e-01 3.788340e-02 2.516051e-04) (0.000000e+00 0.000000e+00 0.000000e+00)) ((-5.118619e-01 -1.690569e-01 -2.943528e+02) (4.228386e-05 -1.880036e-04 2.066846e-02) (0.000000e+00 0.000000e+00 0.000000e+00))
8.200000e-02	((6.513738e+02 -1.488631e+03 1.500304e-01) (1.262486e-01 3.805526e-02 2.562065e-04) (0.000000e+00 0.000000e+00 0.000000e+00)) ((-5.142361e-01 -1.859800e-01 -2.978889e+02) (3.776189e-05 -1.874224e-04 2.079027e-02) (0.000000e+00 0.000000e+00 0.000000e+00))
8.300000e-02	((6.591355e+02 -1.508377e+03 1.590303e-01) (1.271037e-01 3.820022e-02 2.438814e-04) (0.000000e+00 0.000000e+00 0.000000e+00)) ((-5.114399e-01 -2.160647e-01 -3.016964e+02) (3.407025e-05 -1.797146e-04 2.090061e-02) (0.000000e+00 0.000000e+00 0.000000e+00))
8.400000e-02	((6.671521e+02 -1.528435e+03 1.664250e-01) (1.279608e-01 3.828497e-02 2.298070e-04) (0.000000e+00 0.000000e+00 0.000000e+00)) ((-5.287695e-01 -2.617746e-01 -3.056025e+02) (2.847261e-05 -1.703495e-04 2.099627e-02) (0.000000e+00 0.000000e+00 0.000000e+00))
8.500000e-02	((6.748229e+02 -1.547876e+03 1.803233e-01) (1.288149e-01 3.835889e-02 2.157816e-04) (0.000000e+00 0.000000e+00 0.000000e+00)) ((-5.082515e-01 -2.808677e-01 -3.093484e+02) (2.739900e-05 -1.630250e-04 2.108675e-02) (0.000000e+00 0.000000e+00 0.000000e+00))
8.600000e-02	((6.823601e+02 -1.567138e+03 1.855069e-01) (1.296747e-01 3.841529e-02 1.998094e-04) (0.000000e+00 0.000000e+00 0.000000e+00)) ((-5.460886e-01 -3.368339e-01 -3.130258e+02) (2.901397e-05 -1.552763e-04 2.117247e-02) (0.000000e+00 0.000000e+00 0.000000e+00))
8.700000e-02	((6.896007e+02 -1.586008e+03 1.763049e-01) (1.305292e-01 3.846499e-02 1.685457e-04) (0.000000e+00 0.000000e+00 0.000000e+00)) ((-6.601291e-01 -4.314220e-01 -3.165640e+02) (3.169105e-05 -1.421897e-04 2.125255e-02) (0.000000e+00 0.000000e+00 0.000000e+00))
8.800000e-02	((6.966022e+02 -1.604456e+03 1.662312e-01) (1.313799e-01 3.851294e-02 1.419041e-04) (0.000000e+00 0.000000e+00 0.000000e+00)) ((-7.772960e-01 -5.233499e-01 -3.199740e+02) (2.918942e-05 -1.292752e-04 2.133182e-02) (0.000000e+00 0.000000e+00 0.000000e+00))
8.900000e-02	((7.024874e+02 -1.620990e+03 1.632462e-01) (1.322267e-01 3.855835e-02 1.172673e-04) (0.000000e+00 0.000000e+00 0.000000e+00)) ((-8.119605e-01 -5.695193e-01 -3.228570e+02) (2.653817e-05 -1.212327e-04 2.140954e-02) (0.000000e+00 0.000000e+00 0.000000e+00))
9.000000e-02	((7.073455e+02 -1.636060e+03 1.578389e-01) (1.331186e-01 3.863893e-02 8.981276e-05) (0.000000e+00 0.000000e+00 0.000000e+00)) ((-8.258311e-01 -6.056867e-01 -3.252815e+02) (1.975822e-05 -1.087868e-04 2.150189e-02) (0.000000e+00 0.000000e+00 0.000000e+00))
9.100000e-02	((7.113758e+02 -1.650032e+03 1.533340e-01) (1.339490e-01 3.873445e-02 5.119138e-05) (0.000000e+00 0.000000e+00 0.000000e+00)) ((-7.521530e-01 -6.014205e-01 -3.273466e+02) (2.080751e-05 -9.384316e-05 2.159690e-02) (0.000000e+00 0.000000e+00 0.000000e+00))
9.200000e-02	((7.143427e+02 -1.662498e+03 1.454531e-01) (1.346801e-01 3.883646e-02 -7.275708e-06) (0.000000e+00 0.000000e+00 0.000000e+00)) ((-6.704231e-01 -6.053319e-01 -3.289610e+02) (2.512924e-05 -8.408908e-05 2.169107e-02) (0.000000e+00 0.000000e+00 0.000000e+00))
9.300000e-02	((7.158511e+02 -1.672536e+03 1.388109e-01) (1.353358e-01 3.898836e-02 -4.318428e-05) (0.000000e+00 0.000000e+00 0.000000e+00)) ((-5.689856e-01 -6.029429e-01 -3.299360e+02) (2.994904e-05 -8.847030e-05 2.179575e-02) (0.000000e+00 0.000000e+00 0.000000e+00))
9.400000e-02	((7.157617e+02 -1.679623e+03 1.346131e-01) (1.359242e-01 3.915300e-02 -6.000833e-05) (0.000000e+00 0.000000e+00 0.000000e+00)) ((-5.155668e-01 -6.112735e-01 -3.302060e+02) (3.343362e-05 -9.628851e-05 2.190396e-02) (0.000000e+00 0.000000e+00 0.000000e+00))
9.500000e-02	((7.150643e+02 -1.684989e+03 1.398359e-01) (1.364424e-01 3.934201e-02 -5.602363e-05) (0.000000e+00 0.000000e+00 0.000000e+00)) ((-4.651794e-01 -6.156284e-01 -3.301897e+02) (3.279146e-05 -1.077642e-04 2.201620e-02) (0.000000e+00 0.000000e+00 0.000000e+00))
9.600000e-02	((7.145455e+02 -1.689811e+03 1.429247e-01) (1.369189e-01 3.954810e-02 -3.617113e-05) (0.000000e+00 0.000000e+00 0.000000e+00)) ((-4.902025e-01 -6.534462e-01 -3.302284e+02) (2.798912e-05 -1.212900e-04 2.213198e-02) (0.000000e+00 0.000000e+00 0.000000e+00))
9.700000e-02	((7.149717e+02 -1.695238e+03 1.427076e-01) (1.374163e-01 3.976391e-02 -2.314272e-05) (0.000000e+00 0.000000e+00 0.000000e+00)) ((-5.050737e-01 -6.949433e-01 -3.306452e+02) (3.105945e-05 -1.256367e-04 2.225418e-02) (0.000000e+00 0.000000e+00 0.000000e+00))
9.800000e-02	((7.167665e+02 -1.702143e+03 1.321449e-01) (1.379303e-01 3.998427e-02 -2.152023e-05) (0.000000e+00 0.000000e+00 0.000000e+00)) ((-5.052239e-01 -7.249724e-01 -3.316393e+02) (3.705476e-05 -1.241798e-04 2.238064e-02) (0.000000e+00 0.000000e+00 0.000000e+00))
9.900000e-02	((7.198944e+02 -1.710715e+03 1.175210e-01) (1.384406e-01 4.021565e-02 -2.539749e-05) (0.000000e+00 0.000000e+00 0.000000e+00)) ((-5.066379e-01 -7.519511e-01 -3.332193e+02) (4.633892e-05 -1.195077e-04 2.250509e-02) (0.000000e+00 0.000000e+00 0.000000e+00))
1.000000e-01	((7.239403e+02 -1.720583e+03 9.458483e-02) (1.389528e-01 4.043643e-02 -3.513859e-05) (0.000000e+00 0.000000e+00 0.000000e+00)) ((-5.077880e-01 -7.794020e-01 -3.352301e+02) (4.768569e-05 -1.114043e-04 2.262141e-02) (0.000000e+00 0.000000e+00 0.000000e+00))
1.010000e-01	((7.286338e+02 -1.731423e+03 7.339734e-02) (1.394469e-01 4.062898e-02 -6.553091e-05) (0.000000e+00 0.000000e+00 0.000000e+00)) ((-5.110120e-01 -8.116320e-01 -3.375536e+02) (5.102472e-05 -1.004062e-04 2.272456e-02) (0.000000e+00 0.000000e+00 0.000000e+00))
1.020000e-01	((7.338226e+02 -1.743011e+03 4.687352e-02) (1.398921e-01 4.076913e-02 -9.135068e-05) (0.000000e+00 0.000000e+00 0.000000e+00)) ((-5.007230e-01 -8.209490e-01 -3.401103e+02) (5.831114e-05 -9.350926e-05 2.280512e-02) (0.000000e+00 0.000000e+00 0.000000e+00))
1.030000e-01	((7.395308e+02 -1.755150e+03 1.996561e-02) (1.402954e-01 4.087027e-02 -1.373985e-04) (0.000000e+00 0.000000e+00 0.000000e+00)) ((-5.166277e-01 -8.567038e-01 -3.428772e+02) (6.859855e-05 -8.053039e-05 2.286674e-02) (0.000000e+00 0.000000e+00 0.000000e+00))
1.040000e-01	((7.456476e+02 -1.767417e+03 -1.165206e-02) (1.406628e-01 4.091461e-02 -1.721502e-04) (0.000000e+00 0.000000e+00 0.000000e+00)) ((-5.445479e-01 -8.919938e-01 -3.457713e+02) (7.134794e-05 -7.024826e-05 2.290849e-02) (0.000000e+00 0.000000e+00 0.000000e+00))
1.050000e-01	((7.525726e+02 -1.780190e+03 -3.731653e-02) (1.410182e-01 4.092768e-02 -2.151320e-04) (0.000000e+00 0.000000e+00 0.000000e+00)) ((-5.684081e-01 -9.133192e-01 -3.489282e+02) (8.139649e-05 -6.482205e-05 2.293683e-02) (0.000000e+00 0.000000e+00 0.000000e+00))
1.060000e-01	((7.607007e+02 -1.793992e+03 -4.941773e-02) (1.413393e-01 4.092721e-02 -2.447374e-04) (0.000000e+00 0.000000e+00 0.000000e+00)) ((-5.708401e-01 -8.831405e-01 -3.524970e+02) (8.431737e-05 -5.923631e-05 2.295573e-02) (0.000000e+00 0.000000e+00 0.000000e+00))
1.070000e-01	((7.697655e+02 -1.808593e+03 -6.619406e-02) (1.416493e-01 4.090933e-02 -2.791652e-04) (0.000000e+00 0.000000e+00 0.000000e+00)) ((-5.975185e-01 -8.636890e-01 -3.563833e+02) (8.534521e-05 -5.269711e-05 2.296614e-02) (0.000000e+00 0.000000e+00 0.000000e+00))
1.080000e-01	((7.791516e+02 -1.823384e+03 -9.665677e-02) (1.419548e-01 4.085359e-02 -3.287717e-04) (0.000000e+00 0.000000e+00 0.000000e+00)) ((-6.809108e-01 -8.986917e-01 -3.603551e+02) (9.239571e-05 -4.096141e-05 2.296565e-02) (0.000000e+00 0.000000e+00 0.000000e+00))
1.090000e-01	((7.882210e+02 -1.837614e+03 -1.227511e-01) (1.422782e-01 4.077443e-02 -3.901526e-04) (0.000000e+00 0.000000e+00 0.000000e+00)) ((-7.991369e-01 -9.749236e-01 -3.641609e+02) (9.814558e-05 -1.582645e-05 2.295775e-02) (0.000000e+00 0.000000e+00 0.000000e+00))
1.100000e-01	((7.968241e+02 -1.851204e+03 -1.466506e-01) (1.426119e-01 4.070305e-02 -4.282880e-04) (0.000000e+00 0.000000e+00 0.000000e+00)) ((-8.935509e-01 -1.027271e+00 -3.677483e+02) (9.687252e-05 8.168363e-06 2.295055e-02) (0.000000e+00 0.000000e+00 0.000000e+00))
1.110000e-01	((8.047330e+02 -1.863733e+03 -1.639830e-01) (1.430001e-01 4.067623e-02 -4.598658e-04) (0.000000e+00 0.000000e+00 0.000000e+00)) ((-9.498913e-01 -1.045261e+00 -3.710163e+02) (8.859176e-05 3.122119e-05 2.295590e-02) (0.000000e+00 0.000000e+00 0.000000e+00))