# Forces     
# CofR       : (0.000000e+00 0.000000e+00 0.000000e+00)
# Time       forces(pressure viscous porous) moment(pressure viscous porous)
1.000000e-03	((1.384189e+00 -2.141914e+00 -1.228294e-04) (6.107821e-03 -2.981978e-05 5.572879e-07) (0.000000e+00 0.000000e+00 0.000000e+00)) ((6.378548e-05 1.451076e-05 -5.677954e-01) (-1.817257e-07 -1.208463e-06 1.355939e-04) (0.000000e+00 0.000000e+00 0.000000e+00))
2.000000e-03	((9.328553e+00 -1.486308e+01 -7.231751e-04) (7.674414e-03 1.352027e-03 5.169084e-06) (0.000000e+00 0.000000e+00 0.000000e+00)) ((-9.251184e-04 -4.387489e-04 -3.704022e+00) (-8.459849e-07 -4.559480e-06 7.204286e-04) (0.000000e+00 0.000000e+00 0.000000e+00))
3.000000e-03	((1.604738e+01 -2.683168e+01 -8.026586e-04) (9.832508e-03 2.500019e-03 6.136589e-06) (0.000000e+00 0.000000e+00 0.000000e+00)) ((-1.597986e-03 -1.379590e-03 -6.375326e+00) (-4.540222e-06 2.942920e-06 1.193543e-03) (0.000000e+00 0.000000e+00 0.000000e+00))
4.000000e-03	((1.773671e+01 -3.109450e+01 -1.487078e-03) (1.310476e-02 4.149277e-03 4.801334e-06) (0.000000e+00 0.000000e+00 0.000000e+00)) ((2.710506e-03 -1.324242e-03 -7.066594e+00) (-5.049980e-06 4.136253e-06 1.910567e-03) (0.000000e+00 0.000000e+00 0.000000e+00))
5.000000e-03	((1.784764e+01 -3.351534e+01 -2.458973e-03) (1.610766e-02 5.436247e-03 9.983028e-06) (0.000000e+00 0.000000e+00 0.000000e+00)) ((1.968977e-02 2.952466e-03 -7.197680e+00) (-2.341588e-06 2.029751e-05 2.544451e-03) (0.000000e+00 0.000000e+00 0.000000e+00))
6.000000e-03	((1.810276e+01 -3.674719e+01 -4.093970e-03) (1.838936e-02 6.556949e-03 3.603372e-06) (0.000000e+00 0.000000e+00 0.000000e+00)) ((7.056027e-02 1.957592e-02 -7.470485e+00) (-1.602015e-06 2.108318e-05 3.064621e-03) (0.000000e+00 0.000000e+00 0.000000e+00))
7.000000e-03	((1.886979e+01 -4.108417e+01 -3.801117e-03) (2.011761e-02 7.247395e-03 -1.121980e-06) (0.000000e+00 0.000000e+00 0.000000e+00)) ((8.915870e-02 2.345150e-02 -7.999807e+00) (7.297157e-07 1.764269e-05 3.401537e-03) (0.000000e+00 0.000000e+00 0.000000e+00))
8.000000e-03	((2.121970e+01 -4.799732e+01 -3.010413e-03) (2.150519e-02 7.771742e-03 -1.013335e-05) (0.000000e+00 0.000000e+00 0.000000e+00)) ((9.997784e-02 2.697993e-02 -9.189683e+00) (6.424528e-07 1.898191e-05 3.662533e-03) (0.000000e+00 0.000000e+00 0.000000e+00))
9.000000e-03	((2.474004e+01 -5.679300e+01 -1.007870e-03) (2.280417e-02 8.151555e-03 -2.015347e-05) (0.000000e+00 0.000000e+00 0.000000e+00)) ((8.545517e-02 2.140081e-02 -1.085244e+01) (-3.603680e-07 2.138451e-05 3.868405e-03) (0.000000e+00 0.000000e+00 0.000000e+00))
1.000000e-02	((2.862166e+01 -6.604473e+01 -1.970932e-04) (2.406208e-02 8.404760e-03 -2.727474e-05) (0.000000e+00 0.000000e+00 0.000000e+00)) ((6.672598e-02 1.545265e-02 -1.263853e+01) (-3.177107e-06 2.119243e-05 4.045318e-03) (0.000000e+00 0.000000e+00 0.000000e+00))
1.100000e-02	((3.208351e+01 -7.457344e+01 5.998276e-04) (2.528643e-02 8.606935e-03 -2.778632e-05) (0.000000e+00 0.000000e+00 0.000000e+00)) ((5.336664e-02 1.295527e-02 -1.424118e+01) (-4.596054e-06 1.893277e-05 4.210937e-03) (0.000000e+00 0.000000e+00 0.000000e+00))
1.200000e-02	((3.544729e+01 -8.292581e+01 1.275560e-03) (2.654968e-02 8.774128e-03 -2.990106e-05) (0.000000e+00 0.000000e+00 0.000000e+00)) ((5.848063e-02 1.878557e-02 -1.579024e+01) (-5.948651e-06 1.448191e-05 4.371012e-03) (0.000000e+00 0.000000e+00 0.000000e+00))
1.300000e-02	((3.848752e+01 -9.073621e+01 9.512149e-04) (2.776944e-02 8.915104e-03 -3.005073e-05) (0.000000e+00 0.000000e+00 0.000000e+00)) ((6.686933e-02 2.762727e-02 -1.719447e+01) (-5.620334e-06 1.161734e-05 4.525789e-03) (0.000000e+00 0.000000e+00 0.000000e+00))
1.400000e-02	((4.149656e+01 -9.859056e+01 3.640537e-04) (2.898213e-02 9.076318e-03 -4.278761e-05) (0.000000e+00 0.000000e+00 0.000000e+00)) ((9.488377e-02 3.909574e-02 -1.858578e+01) (-5.972920e-06 1.026909e-05 4.687506e-03) (0.000000e+00 0.000000e+00 0.000000e+00))
1.500000e-02	((4.517381e+01 -1.076620e+02 1.119786e-03) (3.021029e-02 9.282221e-03 -4.861126e-05) (0.000000e+00 0.000000e+00 0.000000e+00)) ((9.868872e-02 4.499757e-02 -2.024663e+01) (-2.719761e-06 1.042726e-05 4.862350e-03) (0.000000e+00 0.000000e+00 0.000000e+00))
1.600000e-02	((4.992497e+01 -1.187651e+02 3.450120e-04) (3.149961e-02 9.520676e-03 -5.304043e-05) (0.000000e+00 0.000000e+00 0.000000e+00)) ((1.168720e-01 5.052096e-02 -2.235301e+01) (-9.982982e-07 8.786972e-06 5.049386e-03) (0.000000e+00 0.000000e+00 0.000000e+00))
1.700000e-02	((5.566843e+01 -1.320820e+02 8.725839e-04) (3.286129e-02 9.788798e-03 -5.407686e-05) (0.000000e+00 0.000000e+00 0.000000e+00)) ((1.167838e-01 4.926280e-02 -2.490053e+01) (-4.224817e-07 7.133726e-06 5.246204e-03) (0.000000e+00 0.000000e+00 0.000000e+00))
1.800000e-02	((6.213479e+01 -1.473263e+02 2.488264e-03) (3.430223e-02 1.005836e-02 -5.484524e-05) (0.000000e+00 0.000000e+00 0.000000e+00)) ((9.088627e-02 3.529276e-02 -2.779056e+01) (8.008616e-07 6.308095e-06 5.450134e-03) (0.000000e+00 0.000000e+00 0.000000e+00))
1.900000e-02	((6.865415e+01 -1.633443e+02 5.144823e-03) (3.577698e-02 1.030782e-02 -5.314419e-05) (0.000000e+00 0.000000e+00 0.000000e+00)) ((5.580679e-02 1.850436e-02 -3.074749e+01) (2.767822e-07 2.606942e-06 5.650263e-03) (0.000000e+00 0.000000e+00 0.000000e+00))
2.000000e-02	((7.492341e+01 -1.795003e+02 6.755953e-03) (3.722189e-02 1.051783e-02 -5.178614e-05) (0.000000e+00 0.000000e+00 0.000000e+00)) ((1.267266e-02 9.702291e-04 -3.364444e+01) (2.107130e-06 4.331417e-07 5.840194e-03) (0.000000e+00 0.000000e+00 0.000000e+00))
2.100000e-02	((8.068896e+01 -1.951074e+02 4.628221e-03) (3.858860e-02 1.067256e-02 -5.365790e-05) (0.000000e+00 0.000000e+00 0.000000e+00)) ((-1.898312e-02 -9.392106e-03 -3.635848e+01) (8.393405e-07 -9.670004e-07 6.012416e-03) (0.000000e+00 0.000000e+00 0.000000e+00))
2.200000e-02	((8.598143e+01 -2.100188e+02 -1.214009e-03) (3.986565e-02 1.080357e-02 -6.446378e-05) (0.000000e+00 0.000000e+00 0.000000e+00)) ((-2.122600e-02 -6.932408e-03 -3.889164e+01) (3.277759e-06 -4.389535e-07 6.174680e-03) (0.000000e+00 0.000000e+00 0.000000e+00))
2.300000e-02	((9.121888e+01 -2.248800e+02 -8.400509e-03) (4.110784e-02 1.096064e-02 -8.089243e-05) (0.000000e+00 0.000000e+00 0.000000e+00)) ((1.013006e-02 6.592072e-03 -4.141539e+01) (3.406731e-06 1.845130e-06 6.345922e-03) (0.000000e+00 0.000000e+00 0.000000e+00))
2.400000e-02	((9.686308e+01 -2.405092e+02 -1.407550e-02) (4.233480e-02 1.115515e-02 -9.666200e-05) (0.000000e+00 0.000000e+00 0.000000e+00)) ((3.971157e-02 2.088764e-02 -4.412933e+01) (6.265009e-06 3.883446e-06 6.526818e-03) (0.000000e+00 0.000000e+00 0.000000e+00))
2.500000e-02	((1.033857e+02 -2.579005e+02 -1.642645e-02) (4.356308e-02 1.137186e-02 -1.144832e-04) (0.000000e+00 0.000000e+00 0.000000e+00)) ((6.368634e-02 3.259997e-02 -4.722892e+01) (7.877695e-06 5.678735e-06 6.716766e-03) (0.000000e+00 0.000000e+00 0.000000e+00))
2.600000e-02	((1.107568e+02 -2.770896e+02 -1.633936e-02) (4.478079e-02 1.159014e-02 -1.294488e-04) (0.000000e+00 0.000000e+00 0.000000e+00)) ((6.437570e-02 2.987544e-02 -5.069949e+01) (1.039593e-05 7.498043e-06 6.906577e-03) (0.000000e+00 0.000000e+00 0.000000e+00))
2.700000e-02	((1.189847e+02 -2.981523e+02 -1.501175e-02) (4.596221e-02 1.177074e-02 -1.403459e-04) (0.000000e+00 0.000000e+00 0.000000e+00)) ((7.048726e-02 3.073786e-02 -5.454031e+01) (1.255787e-05 8.679354e-06 7.086864e-03) (0.000000e+00 0.000000e+00 0.000000e+00))
2.800000e-02	((1.278644e+02 -3.207701e+02 -1.122182e-02) (4.712387e-02 1.192691e-02 -1.456378e-04) (0.000000e+00 0.000000e+00 0.000000e+00)) ((5.607380e-02 1.988942e-02 -5.866778e+01) (1.430785e-05 7.335013e-06 7.261599e-03) (0.000000e+00 0.000000e+00 0.000000e+00))
2.900000e-02	((1.371592e+02 -3.444118e+02 -7.946946e-03) (4.826136e-02 1.205304e-02 -1.506114e-04) (0.000000e+00 0.000000e+00 0.000000e+00)) ((3.097453e-02 9.898218e-03 -6.297040e+01) (1.539655e-05 6.496936e-06 7.430452e-03) (0.000000e+00 0.000000e+00 0.000000e+00))
3.000000e-02	((1.465609e+02 -3.685592e+02 -5.186970e-03) (4.932721e-02 1.214080e-02 -1.539877e-04) (0.000000e+00 0.000000e+00 0.000000e+00)) ((1.228437e-02 3.087181e-04 -6.733063e+01) (1.623496e-05 5.474756e-06 7.587017e-03) (0.000000e+00 0.000000e+00 0.000000e+00))
3.100000e-02	((1.559533e+02 -3.928840e+02 -5.315110e-03) (5.021541e-02 1.215114e-02 -1.555446e-04) (0.000000e+00 0.000000e+00 0.000000e+00)) ((5.385555e-03 -2.029993e-03 -7.168656e+01) (1.720234e-05 3.215953e-06 7.718875e-03) (0.000000e+00 0.000000e+00 0.000000e+00))
3.200000e-02	((1.653858e+02 -4.172967e+02 -5.612281e-03) (5.090815e-02 1.212343e-02 -1.498126e-04) (0.000000e+00 0.000000e+00 0.000000e+00)) ((-3.168538e-02 -2.097919e-02 -7.605973e+01) (1.876091e-05 -1.354635e-06 7.833217e-03) (0.000000e+00 0.000000e+00 0.000000e+00))
3.300000e-02	((1.749819e+02 -4.419285e+02 -7.431708e-03) (5.160927e-02 1.213094e-02 -1.468470e-04) (0.000000e+00 0.000000e+00 0.000000e+00)) ((-7.090722e-02 -3.613654e-02 -8.049536e+01) (1.739671e-05 -5.854572e-06 7.956654e-03) (0.000000e+00 0.000000e+00 0.000000e+00))
3.400000e-02	((1.850137e+02 -4.672983e+02 -1.114296e-02) (5.231543e-02 1.218945e-02 -1.524835e-04) (0.000000e+00 0.000000e+00 0.000000e+00)) ((-1.256892e-01 -5.767946e-02 -8.512424e+01) (1.541006e-05 -3.728076e-06 8.091076e-03) (0.000000e+00 0.000000e+00 0.000000e+00))
3.500000e-02	((1.956573e+02 -4.938297e+02 -1.449688e-02) (5.330506e-02 1.232864e-02 -1.632906e-04) (0.000000e+00 0.000000e+00 0.000000e+00)) ((-1.627065e-01 -6.870957e-02 -9.001437e+01) (1.384782e-05 -4.303632e-06 8.259360e-03) (0.000000e+00 0.000000e+00 0.000000e+00))
3.600000e-02	((2.068510e+02 -5.214369e+02 -1.589771e-02) (5.432176e-02 1.247930e-02 -1.652915e-04) (0.000000e+00 0.000000e+00 0.000000e+00)) ((-2.078682e-01 -8.079999e-02 -9.514159e+01) (1.244219e-05 -1.076705e-05 8.431095e-03) (0.000000e+00 0.000000e+00 0.000000e+00))
3.700000e-02	((2.184711e+02 -5.497876e+02 -1.395721e-02) (5.532276e-02 1.268107e-02 -1.635973e-04) (0.000000e+00 0.000000e+00 0.000000e+00)) ((-2.370873e-01 -8.809311e-02 -1.004421e+02) (1.093063e-05 -1.347020e-05 8.608961e-03) (0.000000e+00 0.000000e+00 0.000000e+00))
3.800000e-02	((2.304576e+02 -5.787386e+02 -9.639917e-03) (5.640690e-02 1.290619e-02 -1.575725e-04) (0.000000e+00 0.000000e+00 0.000000e+00)) ((-2.561065e-01 -9.212794e-02 -1.058917e+02) (1.121615e-05 -2.055998e-05 8.799642e-03) (0.000000e+00 0.000000e+00 0.000000e+00))
3.900000e-02	((2.429445e+02 -6.086411e+02 -4.133188e-03) (5.759660e-02 1.315791e-02 -1.403335e-04) (0.000000e+00 0.000000e+00 0.000000e+00)) ((-2.862169e-01 -1.056428e-01 -1.115579e+02) (8.205805e-06 -3.149528e-05 9.001881e-03) (0.000000e+00 0.000000e+00 0.000000e+00))
4.000000e-02	((2.559160e+02 -6.394459e+02 -1.329102e-03) (5.887006e-02 1.342259e-02 -1.287142e-04) (0.000000e+00 0.000000e+00 0.000000e+00)) ((-3.283959e-01 -1.308892e-01 -1.174348e+02) (7.781269e-06 -3.510772e-05 9.212452e-03) (0.000000e+00 0.000000e+00 0.000000e+00))
4.100000e-02	((2.693072e+02 -6.710512e+02 7.927614e-04) (6.022366e-02 1.370965e-02 -1.139193e-04) (0.000000e+00 0.000000e+00 0.000000e+00)) ((-3.772181e-01 -1.673282e-01 -1.234959e+02) (8.095477e-06 -3.963204e-05 9.432297e-03) (0.000000e+00 0.000000e+00 0.000000e+00))
4.200000e-02	((2.828906e+02 -7.028571e+02 1.578828e-03) (6.162754e-02 1.402782e-02 -1.078469e-04) (0.000000e+00 0.000000e+00 0.000000e+00)) ((-4.484700e-01 -2.163358e-01 -1.296353e+02) (9.721325e-06 -3.962010e-05 9.659025e-03) (0.000000e+00 0.000000e+00 0.000000e+00))
4.300000e-02	((2.965811e+02 -7.346199e+02 1.807217e-03) (6.307807e-02 1.438747e-02 -9.555157e-05) (0.000000e+00 0.000000e+00 0.000000e+00)) ((-4.853019e-01 -2.512854e-01 -1.358168e+02) (1.052844e-05 -4.140352e-05 9.894895e-03) (0.000000e+00 0.000000e+00 0.000000e+00))
4.400000e-02	((3.104060e+02 -7.663510e+02 2.643218e-03) (6.458654e-02 1.476718e-02 -8.492944e-05) (0.000000e+00 0.000000e+00 0.000000e+00)) ((-4.862406e-01 -2.658597e-01 -1.420610e+02) (1.013466e-05 -4.002399e-05 1.013686e-02) (0.000000e+00 0.000000e+00 0.000000e+00))
4.500000e-02	((3.242994e+02 -7.978472e+02 1.078754e-03) (6.613703e-02 1.517739e-02 -7.696549e-05) (0.000000e+00 0.000000e+00 0.000000e+00)) ((-4.673617e-01 -2.732140e-01 -1.483289e+02) (9.347384e-06 -4.028190e-05 1.038661e-02) (0.000000e+00 0.000000e+00 0.000000e+00))
4.600000e-02	((3.382073e+02 -8.288703e+02 5.529859e-04) (6.774732e-02 1.562108e-02 -6.718869e-05) (0.000000e+00 0.000000e+00 0.000000e+00)) ((-4.394245e-01 -2.763436e-01 -1.545958e+02) (9.170450e-06 -4.011217e-05 1.064539e-02) (0.000000e+00 0.000000e+00 0.000000e+00))
4.700000e-02	((3.521185e+02 -8.592592e+02 -1.421602e-03) (6.941270e-02 1.609537e-02 -5.444312e-05) (0.000000e+00 0.000000e+00 0.000000e+00)) ((-4.003782e-01 -2.748152e-01 -1.608431e+02) (8.887638e-06 -4.123320e-05 1.091282e-02) (0.000000e+00 0.000000e+00 0.000000e+00))
4.800000e-02	((3.660431e+02 -8.889840e+02 -3.723145e-03) (7.114546e-02 1.661045e-02 -4.429718e-05) (0.000000e+00 0.000000e+00 0.000000e+00)) ((-3.856525e-01 -2.726342e-01 -1.670703e+02) (8.895815e-06 -4.239154e-05 1.119122e-02) (0.000000e+00 0.000000e+00 0.000000e+00))
4.900000e-02	((3.798728e+02 -9.177680e+02 -4.824357e-03) (7.295179e-02 1.717082e-02 -3.988280e-05) (0.000000e+00 0.000000e+00 0.000000e+00)) ((-3.358113e-01 -2.611822e-01 -1.732191e+02) (8.825910e-06 -4.179119e-05 1.148138e-02) (0.000000e+00 0.000000e+00 0.000000e+00))
5.000000e-02	((3.936518e+02 -9.458581e+02 -1.681291e-03) (7.482520e-02 1.777383e-02 -3.979594e-05) (0.000000e+00 0.000000e+00 0.000000e+00)) ((-2.984492e-01 -2.566013e-01 -1.793261e+02) (8.642995e-06 -4.046443e-05 1.178296e-02) (0.000000e+00 0.000000e+00 0.000000e+00))
5.100000e-02	((4.072205e+02 -9.731058e+02 5.310499e-03) (7.676269e-02 1.842455e-02 -4.221378e-05) (0.000000e+00 0.000000e+00 0.000000e+00)) ((-2.551359e-01 -2.451399e-01 -1.853236e+02) (7.644353e-06 -3.733227e-05 1.209616e-02) (0.000000e+00 0.000000e+00 0.000000e+00))
5.200000e-02	((4.204299e+02 -9.993553e+02 9.085639e-03) (7.874721e-02 1.910581e-02 -4.841379e-05) (0.000000e+00 0.000000e+00 0.000000e+00)) ((-2.089874e-01 -2.233652e-01 -1.911568e+02) (6.700764e-06 -3.458584e-05 1.241752e-02) (0.000000e+00 0.000000e+00 0.000000e+00))
5.300000e-02	((4.331329e+02 -1.024324e+03 1.403709e-02) (8.074093e-02 1.981576e-02 -6.020160e-05) (0.000000e+00 0.000000e+00 0.000000e+00)) ((-1.980631e-01 -2.137862e-01 -1.967541e+02) (5.890837e-06 -3.043676e-05 1.274503e-02) (0.000000e+00 0.000000e+00 0.000000e+00))
5.400000e-02	((4.451505e+02 -1.047394e+03 1.864283e-02) (8.273347e-02 2.054674e-02 -6.929324e-05) (0.000000e+00 0.000000e+00 0.000000e+00)) ((-2.124139e-01 -2.062954e-01 -2.020199e+02) (5.344290e-06 -2.772591e-05 1.307676e-02) (0.000000e+00 0.000000e+00 0.000000e+00))
5.500000e-02	((4.561466e+02 -1.067769e+03 2.505770e-02) (8.471588e-02 2.131635e-02 -8.078489e-05) (0.000000e+00 0.000000e+00 0.000000e+00)) ((-2.187495e-01 -1.976017e-01 -2.067962e+02) (5.327607e-06 -2.441635e-05 1.341545e-02) (0.000000e+00 0.000000e+00 0.000000e+00))
5.600000e-02	((4.663632e+02 -1.085738e+03 3.077220e-02) (8.669489e-02 2.212065e-02 -8.903738e-05) (0.000000e+00 0.000000e+00 0.000000e+00)) ((-1.946475e-01 -1.641191e-01 -2.111846e+02) (2.880372e-06 -2.157597e-05 1.376069e-02) (0.000000e+00 0.000000e+00 0.000000e+00))
5.700000e-02	((4.756368e+02 -1.100946e+03 3.353073e-02) (8.868148e-02 2.297984e-02 -9.242818e-05) (0.000000e+00 0.000000e+00 0.000000e+00)) ((-1.964879e-01 -1.348068e-01 -2.151076e+02) (1.146956e-06 -2.079904e-05 1.411617e-02) (0.000000e+00 0.000000e+00 0.000000e+00))
5.800000e-02	((4.842039e+02 -1.114037e+03 3.323232e-02) (9.068386e-02 2.387140e-02 -9.679121e-05) (0.000000e+00 0.000000e+00 0.000000e+00)) ((-2.288156e-01 -1.156300e-01 -2.186834e+02) (-1.106648e-06 -1.939605e-05 1.448046e-02) (0.000000e+00 0.000000e+00 0.000000e+00))
5.900000e-02	((4.923245e+02 -1.125649e+03 3.247968e-02) (9.269672e-02 2.480861e-02 -9.549962e-05) (0.000000e+00 0.000000e+00 0.000000e+00)) ((-2.685734e-01 -1.054323e-01 -2.220342e+02) (-2.257935e-06 -1.862525e-05 1.485492e-02) (0.000000e+00 0.000000e+00 0.000000e+00))
6.000000e-02	((5.002707e+02 -1.136647e+03 3.615111e-02) (9.471587e-02 2.574914e-02 -9.232052e-05) (0.000000e+00 0.000000e+00 0.000000e+00)) ((-2.701150e-01 -8.462787e-02 -2.253051e+02) (-3.720213e-06 -2.127252e-05 1.523082e-02) (0.000000e+00 0.000000e+00 0.000000e+00))
6.100000e-02	((5.079209e+02 -1.147011e+03 4.223793e-02) (9.672425e-02 2.669856e-02 -8.485366e-05) (0.000000e+00 0.000000e+00 0.000000e+00)) ((-2.960662e-01 -8.776410e-02 -2.284526e+02) (-3.411941e-06 -2.544834e-05 1.560586e-02) (0.000000e+00 0.000000e+00 0.000000e+00))
6.200000e-02	((5.154639e+02 -1.157384e+03 5.222798e-02) (9.872818e-02 2.763885e-02 -8.081515e-05) (0.000000e+00 0.000000e+00 0.000000e+00)) ((-3.314745e-01 -1.023995e-01 -2.315820e+02) (-3.428443e-06 -2.744098e-05 1.597685e-02) (0.000000e+00 0.000000e+00 0.000000e+00))
6.300000e-02	((5.228697e+02 -1.167815e+03 5.838855e-02) (1.007210e-01 2.857681e-02 -6.704332e-05) (0.000000e+00 0.000000e+00 0.000000e+00)) ((-3.834998e-01 -1.282364e-01 -2.346850e+02) (-1.254804e-07 -3.344364e-05 1.634375e-02) (0.000000e+00 0.000000e+00 0.000000e+00))
6.400000e-02	((5.301674e+02 -1.178387e+03 6.315306e-02) (1.027009e-01 2.949422e-02 -5.971886e-05) (0.000000e+00 0.000000e+00 0.000000e+00)) ((-4.194809e-01 -1.518797e-01 -2.377755e+02) (6.539095e-07 -3.859793e-05 1.670438e-02) (0.000000e+00 0.000000e+00 0.000000e+00))
6.500000e-02	((5.373588e+02 -1.189173e+03 6.300103e-02) (1.046660e-01 3.039645e-02 -4.878832e-05) (0.000000e+00 0.000000e+00 0.000000e+00)) ((-4.292278e-01 -1.644954e-01 -2.408550e+02) (3.160560e-06 -4.525534e-05 1.705868e-02) (0.000000e+00 0.000000e+00 0.000000e+00))
6.600000e-02	((5.443956e+02 -1.200220e+03 6.336982e-02) (1.066160e-01 3.126891e-02 -4.680497e-05) (0.000000e+00 0.000000e+00 0.000000e+00)) ((-3.968435e-01 -1.541736e-01 -2.439039e+02) (8.339120e-06 -5.101643e-05 1.740406e-02) (0.000000e+00 0.000000e+00 0.000000e+00))
6.700000e-02	((5.511038e+02 -1.211313e+03 6.540260e-02) (1.085578e-01 3.211782e-02 -4.333461e-05) (0.000000e+00 0.000000e+00 0.000000e+00)) ((-3.150785e-01 -1.215563e-01 -2.468470e+02) (1.253823e-05 -5.859030e-05 1.774178e-02) (0.000000e+00 0.000000e+00 0.000000e+00))
6.800000e-02	((5.573922e+02 -1.222388e+03 6.935563e-02) (1.104624e-01 3.294419e-02 -4.384651e-05) (0.000000e+00 0.000000e+00 0.000000e+00)) ((-2.305284e-01 -9.368394e-02 -2.496414e+02) (1.739103e-05 -6.065469e-05 1.807191e-02) (0.000000e+00 0.000000e+00 0.000000e+00))
6.900000e-02	((5.633683e+02 -1.233685e+03 7.192573e-02) (1.123364e-01 3.374116e-02 -5.073975e-05) (0.000000e+00 0.000000e+00 0.000000e+00)) ((-1.536882e-01 -6.877571e-02 -2.523389e+02) (2.406884e-05 -6.458491e-05 1.839294e-02) (0.000000e+00 0.000000e+00 0.000000e+00))
7.000000e-02	((5.692021e+02 -1.245512e+03 7.562135e-02) (1.142038e-01 3.453172e-02 -6.212149e-05) (0.000000e+00 0.000000e+00 0.000000e+00)) ((-1.211931e-01 -6.004643e-02 -2.550123e+02) (3.071651e-05 -6.739307e-05 1.871355e-02) (0.000000e+00 0.000000e+00 0.000000e+00))
7.100000e-02	((5.749488e+02 -1.257800e+03 7.482704e-02) (1.160339e-01 3.530733e-02 -5.864018e-05) (0.000000e+00 0.000000e+00 0.000000e+00)) ((-1.310778e-01 -6.627497e-02 -2.576778e+02) (3.477968e-05 -6.913923e-05 1.902753e-02) (0.000000e+00 0.000000e+00 0.000000e+00))
7.200000e-02	((5.806712e+02 -1.270533e+03 7.527875e-02) (1.178283e-01 3.605478e-02 -5.828598e-05) (0.000000e+00 0.000000e+00 0.000000e+00)) ((-1.834968e-01 -9.218418e-02 -2.603573e+02) (3.597025e-05 -7.181786e-05 1.933614e-02) (0.000000e+00 0.000000e+00 0.000000e+00))
7.300000e-02	((5.863606e+02 -1.283742e+03 7.441746e-02) (1.195747e-01 3.676562e-02 -5.837059e-05) (0.000000e+00 0.000000e+00 0.000000e+00)) ((-2.370476e-01 -1.055036e-01 -2.630545e+02) (3.873738e-05 -7.126221e-05 1.963375e-02) (0.000000e+00 0.000000e+00 0.000000e+00))
7.400000e-02	((5.919931e+02 -1.297430e+03 7.735287e-02) (1.212905e-01 3.740805e-02 -4.468860e-05) (0.000000e+00 0.000000e+00 0.000000e+00)) ((-2.628665e-01 -1.061873e-01 -2.657634e+02) (4.000399e-05 -7.565394e-05 1.991639e-02) (0.000000e+00 0.000000e+00 0.000000e+00))
7.500000e-02	((5.976518e+02 -1.311894e+03 8.100136e-02) (1.229808e-01 3.800973e-02 -2.688382e-05) (0.000000e+00 0.000000e+00 0.000000e+00)) ((-2.521836e-01 -8.427202e-02 -2.685262e+02) (4.017545e-05 -7.793437e-05 2.018641e-02) (0.000000e+00 0.000000e+00 0.000000e+00))
7.600000e-02	((6.034118e+02 -1.327401e+03 8.070030e-02) (1.246290e-01 3.854190e-02 -8.138933e-06) (0.000000e+00 0.000000e+00 0.000000e+00)) ((-2.547905e-01 -7.496600e-02 -2.713900e+02) (3.866118e-05 -7.991948e-05 2.043823e-02) (0.000000e+00 0.000000e+00 0.000000e+00))
7.700000e-02	((6.092068e+02 -1.343686e+03 7.702953e-02) (1.262402e-01 3.903627e-02 1.718898e-06) (0.000000e+00 0.000000e+00 0.000000e+00)) ((-2.871881e-01 -7.639121e-02 -2.743154e+02) (3.786351e-05 -7.810015e-05 2.067774e-02) (0.000000e+00 0.000000e+00 0.000000e+00))
7.800000e-02	((6.149765e+02 -1.360529e+03 7.820540e-02) (1.278292e-01 3.950700e-02 -4.663182e-08) (0.000000e+00 0.000000e+00 0.000000e+00)) ((-3.130876e-01 -8.308981e-02 -2.772718e+02) (3.551148e-05 -7.575073e-05 2.090901e-02) (0.000000e+00 0.000000e+00 0.000000e+00))
7.900000e-02	((6.209615e+02 -1.378097e+03 7.818406e-02) (1.293602e-01 3.993890e-02 -2.298337e-07) (0.000000e+00 0.000000e+00 0.000000e+00)) ((-3.213091e-01 -8.355837e-02 -2.803461e+02) (3.180961e-05 -7.341135e-05 2.112506e-02) (0.000000e+00 0.000000e+00 0.000000e+00))
8.000000e-02	((6.275481e+02 -1.396817e+03 8.262837e-02) (1.308475e-01 4.029718e-02 -1.055510e-05) (0.000000e+00 0.000000e+00 0.000000e+00)) ((-3.441553e-01 -1.068258e-01 -2.836917e+02) (2.467056e-05 -6.930680e-05 2.132086e-02) (0.000000e+00 0.000000e+00 0.000000e+00))
8.100000e-02	((6.349056e+02 -1.416804e+03 9.616137e-02) (1.323744e-01 4.066439e-02 -1.108786e-05) (0.000000e+00 0.000000e+00 0.000000e+00)) ((-3.651548e-01 -1.340310e-01 -2.873767e+02) (2.067093e-05 -7.046803e-05 2.151848e-02) (0.000000e+00 0.000000e+00 0.000000e+00))
8.200000e-02	((6.425487e+02 -1.437189e+03 1.118631e-01) (1.339730e-01 4.096972e-02 -1.889926e-05) (0.000000e+00 0.000000e+00 0.000000e+00)) ((-3.493624e-01 -1.585628e-01 -2.911639e+02) (1.569292e-05 -6.132875e-05 2.170532e-02) (0.000000e+00 0.000000e+00 0.000000e+00))
8.300000e-02	((6.498309e+02 -1.457079e+03 1.190174e-01) (1.356342e-01 4.123324e-02 -4.258409e-05) (0.000000e+00 0.000000e+00 0.000000e+00)) ((-3.343259e-01 -1.715543e-01 -2.947875e+02) (1.196981e-05 -4.170024e-05 2.188500e-02) (0.000000e+00 0.000000e+00 0.000000e+00))
8.400000e-02	((6.567138e+02 -1.476413e+03 1.212754e-01) (1.373818e-01 4.152367e-02 -7.858151e-05) (0.000000e+00 0.000000e+00 0.000000e+00)) ((-3.108712e-01 -1.800871e-01 -2.982171e+02) (1.063113e-05 -1.931544e-05 2.207517e-02) (0.000000e+00 0.000000e+00 0.000000e+00))
8.500000e-02	((6.635268e+02 -1.495990e+03 1.224771e-01) (1.390923e-01 4.185443e-02 -1.078831e-04) (0.000000e+00 0.000000e+00 0.000000e+00)) ((-3.226196e-01 -2.084457e-01 -3.016176e+02) (2.309803e-06 1.778520e-06 2.226880e-02) (0.000000e+00 0.000000e+00 0.000000e+00))
8.600000e-02	((6.696430e+02 -1.514710e+03 1.198952e-01) (1.407894e-01 4.220531e-02 -1.145354e-04) (0.000000e+00 0.000000e+00 0.000000e+00)) ((-3.857250e-01 -2.861933e-01 -3.046885e+02) (-6.935237e-06 4.418522e-06 2.246453e-02) (0.000000e+00 0.000000e+00 0.000000e+00))
8.700000e-02	((6.743205e+02 -1.531489e+03 1.081357e-01) (1.424426e-01 4.264341e-02 -1.125486e-04) (0.000000e+00 0.000000e+00 0.000000e+00)) ((-4.806884e-01 -3.696600e-01 -3.071310e+02) (-1.737534e-05 4.262514e-06 2.267728e-02) (0.000000e+00 0.000000e+00 0.000000e+00))
8.800000e-02	((6.776332e+02 -1.546539e+03 9.609405e-02) (1.441071e-01 4.309529e-02 -1.060767e-04) (0.000000e+00 0.000000e+00 0.000000e+00)) ((-5.827156e-01 -4.340490e-01 -3.089812e+02) (-2.373823e-05 5.718262e-06 2.289915e-02) (0.000000e+00 0.000000e+00 0.000000e+00))
8.900000e-02	((6.795133e+02 -1.559642e+03 8.389238e-02) (1.457004e-01 4.356009e-02 -9.848499e-05) (0.000000e+00 0.000000e+00 0.000000e+00)) ((-6.686900e-01 -4.853055e-01 -3.102225e+02) (-2.510490e-05 1.175932e-05 2.312573e-02) (0.000000e+00 0.000000e+00 0.000000e+00))
9.000000e-02	((6.799812e+02 -1.570550e+03 8.041247e-02) (1.472793e-01 4.404976e-02 -1.130811e-04) (0.000000e+00 0.000000e+00 0.000000e+00)) ((-7.262670e-01 -5.248693e-01 -3.108452e+02) (-2.314077e-05 2.290584e-05 2.336687e-02) (0.000000e+00 0.000000e+00 0.000000e+00))
9.100000e-02	((6.791695e+02 -1.579462e+03 8.263333e-02) (1.489252e-01 4.458602e-02 -1.383201e-04) (0.000000e+00 0.000000e+00 0.000000e+00)) ((-7.583592e-01 -5.395964e-01 -3.109246e+02) (-2.271508e-05 3.896028e-05 2.363304e-02) (0.000000e+00 0.000000e+00 0.000000e+00))
9.200000e-02	((6.775298e+02 -1.586777e+03 8.526420e-02) (1.505951e-01 4.512839e-02 -1.593899e-04) (0.000000e+00 0.000000e+00 0.000000e+00)) ((-7.617445e-01 -5.491865e-01 -3.106316e+02) (-2.394506e-05 5.584851e-05 2.390961e-02) (0.000000e+00 0.000000e+00 0.000000e+00))
9.300000e-02	((6.760987e+02 -1.593988e+03 8.409106e-02) (1.522483e-01 4.568746e-02 -1.872094e-04) (0.000000e+00 0.000000e+00 0.000000e+00)) ((-7.780434e-01 -5.528197e-01 -3.104223e+02) (-2.506718e-05 6.299158e-05 2.419193e-02) (0.000000e+00 0.000000e+00 0.000000e+00))
9.400000e-02	((6.758595e+02 -1.602343e+03 8.452736e-02) (1.538916e-01 4.627712e-02 -2.289156e-04) (0.000000e+00 0.000000e+00 0.000000e+00)) ((-7.921606e-01 -5.653662e-01 -3.106985e+02) (-2.485107e-05 7.003228e-05 2.448433e-02) (0.000000e+00 0.000000e+00 0.000000e+00))
9.500000e-02	((6.771954e+02 -1.612922e+03 8.355589e-02) (1.555327e-01 4.689779e-02 -2.301060e-04) (0.000000e+00 0.000000e+00 0.000000e+00)) ((-8.261064e-01 -5.974306e-01 -3.116720e+02) (-2.825247e-05 6.664135e-05 2.478213e-02) (0.000000e+00 0.000000e+00 0.000000e+00))
9.600000e-02	((6.797278e+02 -1.625019e+03 7.643022e-02) (1.572044e-01 4.753828e-02 -2.504281e-04) (0.000000e+00 0.000000e+00 0.000000e+00)) ((-8.446112e-01 -6.337003e-01 -3.131663e+02) (-2.680206e-05 6.797310e-05 2.508609e-02) (0.000000e+00 0.000000e+00 0.000000e+00))
9.700000e-02	((6.831074e+02 -1.638777e+03 6.077768e-02) (1.588619e-01 4.818201e-02 -2.743070e-04) (0.000000e+00 0.000000e+00 0.000000e+00)) ((-7.928601e-01 -6.533197e-01 -3.150886e+02) (-2.365011e-05 7.023736e-05 2.538553e-02) (0.000000e+00 0.000000e+00 0.000000e+00))
9.800000e-02	((6.869931e+02 -1.653747e+03 3.917480e-02) (1.605086e-01 4.878382e-02 -3.073241e-04) (0.000000e+00 0.000000e+00 0.000000e+00)) ((-6.856311e-01 -6.718159e-01 -3.172974e+02) (-2.432760e-05 7.271843e-05 2.566845e-02) (0.000000e+00 0.000000e+00 0.000000e+00))
9.900000e-02	((6.910509e+02 -1.669193e+03 8.205655e-03) (1.620328e-01 4.933015e-02 -3.169226e-04) (0.000000e+00 0.000000e+00 0.000000e+00)) ((-6.454394e-01 -7.030927e-01 -3.196349e+02) (-1.363573e-05 6.621837e-05 2.592778e-02) (0.000000e+00 0.000000e+00 0.000000e+00))
1.000000e-01	((6.953619e+02 -1.685110e+03 -1.584824e-02) (1.634573e-01 4.976072e-02 -3.287310e-04) (0.000000e+00 0.000000e+00 0.000000e+00)) ((-5.691280e-01 -7.169860e-01 -3.221157e+02) (-1.231961e-05 7.275743e-05 2.614630e-02) (0.000000e+00 0.000000e+00 0.000000e+00))
1.010000e-01	((7.001676e+02 -1.701178e+03 -3.309000e-02) (1.647671e-01 5.009961e-02 -3.158953e-04) (0.000000e+00 0.000000e+00 0.000000e+00)) ((-5.224744e-01 -7.121873e-01 -3.247662e+02) (-8.574871e-06 7.254868e-05 2.632878e-02) (0.000000e+00 0.000000e+00 0.000000e+00))
1.020000e-01	((7.057683e+02 -1.717546e+03 -3.684451e-02) (1.660422e-01 5.038734e-02 -2.949138e-04) (0.000000e+00 0.000000e+00 0.000000e+00)) ((-4.352650e-01 -6.703265e-01 -3.276631e+02) (-6.526658e-06 6.969873e-05 2.649308e-02) (0.000000e+00 0.000000e+00 0.000000e+00))
1.030000e-01	((7.126992e+02 -1.735068e+03 -4.610481e-02) (1.672630e-01 5.063296e-02 -2.801180e-04) (0.000000e+00 0.000000e+00 0.000000e+00)) ((-3.365796e-01 -6.240576e-01 -3.310220e+02) (5.950531e-07 6.555252e-05 2.664008e-02) (0.000000e+00 0.000000e+00 0.000000e+00))
1.040000e-01	((7.207347e+02 -1.753613e+03 -4.480746e-02) (1.684817e-01 5.086719e-02 -2.701645e-04) (0.000000e+00 0.000000e+00 0.000000e+00)) ((-2.447217e-01 -5.821125e-01 -3.347656e+02) (9.096366e-07 6.146190e-05 2.678073e-02) (0.000000e+00 0.000000e+00 0.000000e+00))
1.050000e-01	((7.293476e+02 -1.772795e+03 -5.525627e-02) (1.696780e-01 5.108815e-02 -2.680979e-04) (0.000000e+00 0.000000e+00 0.000000e+00)) ((-1.724049e-01 -5.640609e-01 -3.387057e+02) (4.236671e-06 5.878784e-05 2.691463e-02) (0.000000e+00 0.000000e+00 0.000000e+00))
1.060000e-01	((7.378845e+02 -1.791894e+03 -6.548401e-02) (1.708836e-01 5.128488e-02 -2.927942e-04) (0.000000e+00 0.000000e+00 0.000000e+00)) ((-1.217562e-01 -5.746516e-01 -3.425961e+02) (5.646802e-06 7.213276e-05 2.703994e-02) (0.000000e+00 0.000000e+00 0.000000e+00))
1.070000e-01	((7.459127e+02 -1.810531e+03 -8.083626e-02) (1.720645e-01 5.147049e-02 -2.974927e-04) (0.000000e+00 0.000000e+00 0.000000e+00)) ((-1.165700e-01 -6.088400e-01 -3.462768e+02) (5.418170e-06 8.073636e-05 2.715731e-02) (0.000000e+00 0.000000e+00 0.000000e+00))
1.080000e-01	((7.531868e+02 -1.828249e+03 -9.837996e-02) (1.732223e-01 5.165193e-02 -3.157065e-04) (0.000000e+00 0.000000e+00 0.000000e+00)) ((-8.374049e-02 -6.157524e-01 -3.496378e+02) (4.369977e-06 9.179081e-05 2.727479e-02) (0.000000e+00 0.000000e+00 0.000000e+00))
1.090000e-01	((7.597288e+02 -1.845098e+03 -1.203286e-01) (1.743682e-01 5.187177e-02 -3.098674e-04) (0.000000e+00 0.000000e+00 0.000000e+00)) ((-5.193559e-02 -6.150823e-01 -3.526958e+02) (1.392633e-06 9.843963e-05 2.740441e-02) (0.000000e+00 0.000000e+00 0.000000e+00))
1.100000e-01	((7.654990e+02 -1.860822e+03 -1.370140e-01) (1.755270e-01 5.212075e-02 -3.020773e-04) (0.000000e+00 0.000000e+00 0.000000e+00)) ((1.752105e-02 -5.850127e-01 -3.554237e+02) (-1.268899e-06 1.037911e-04 2.754286e-02) (0.000000e+00 0.000000e+00 0.000000e+00))
1.110000e-01	((7.705013e+02 -1.875403e+03 -1.513702e-01) (1.766859e-01 5.241502e-02 -3.235247e-04) (0.000000e+00 0.000000e+00 0.000000e+00)) ((1.104248e-01 -5.240899e-01 -3.578256e+02) (3.109749e-07 1.137789e-04 2.769330e-02) (0.000000e+00 0.000000e+00 0.000000e+00))