# Forces     
# CofR       : (0.000000e+00 0.000000e+00 0.000000e+00)
# Time       forces(pressure viscous porous) moment(pressure viscous porous)
1.000000e-03	((1.080950e+00 -1.676365e+00 -9.213965e-05) (5.956082e-03 -6.999818e-05 4.961431e-07) (0.000000e+00 0.000000e+00 0.000000e+00)) ((1.023303e-04 2.775460e-05 -4.507339e-01) (-1.346754e-07 -1.156215e-06 1.156489e-04) (0.000000e+00 0.000000e+00 0.000000e+00))
2.000000e-03	((4.259458e+00 -6.766732e+00 -3.143484e-04) (6.137844e-03 1.062377e-03 1.613698e-06) (0.000000e+00 0.000000e+00 0.000000e+00)) ((-2.987048e-04 -1.839757e-04 -1.716395e+00) (-8.172377e-07 -2.451693e-06 5.537897e-04) (0.000000e+00 0.000000e+00 0.000000e+00))
3.000000e-03	((6.330071e+00 -1.053384e+01 -2.720580e-04) (7.151689e-03 2.095410e-03 -3.121150e-06) (0.000000e+00 0.000000e+00 0.000000e+00)) ((-7.654144e-04 -6.129365e-04 -2.538827e+00) (-3.813402e-06 -2.868613e-07 9.654922e-04) (0.000000e+00 0.000000e+00 0.000000e+00))
4.000000e-03	((6.708422e+00 -1.179006e+01 -2.409306e-04) (8.947259e-03 3.167620e-03 -5.414396e-06) (0.000000e+00 0.000000e+00 0.000000e+00)) ((2.540897e-03 1.961616e-04 -2.691817e+00) (-3.980934e-06 -1.873357e-06 1.411579e-03) (0.000000e+00 0.000000e+00 0.000000e+00))
5.000000e-03	((6.384035e+00 -1.210905e+01 -1.437973e-03) (1.043729e-02 3.902782e-03 -7.295067e-06) (0.000000e+00 0.000000e+00 0.000000e+00)) ((1.297244e-02 3.772173e-03 -2.581881e+00) (-9.367337e-07 1.768270e-06 1.767286e-03) (0.000000e+00 0.000000e+00 0.000000e+00))
6.000000e-03	((6.177784e+00 -1.276185e+01 -1.852108e-03) (1.161415e-02 4.399498e-03 -1.580694e-05) (0.000000e+00 0.000000e+00 0.000000e+00)) ((2.162471e-02 6.489249e-03 -2.549317e+00) (1.085768e-06 7.153688e-06 2.006708e-03) (0.000000e+00 0.000000e+00 0.000000e+00))
7.000000e-03	((6.286837e+00 -1.398320e+01 -1.831463e-03) (1.252327e-02 4.726555e-03 -1.865893e-05) (0.000000e+00 0.000000e+00 0.000000e+00)) ((2.324480e-02 7.083540e-03 -2.673519e+00) (-4.626778e-07 9.978652e-06 2.172966e-03) (0.000000e+00 0.000000e+00 0.000000e+00))
8.000000e-03	((7.100153e+00 -1.634833e+01 -1.139364e-03) (1.328139e-02 4.960472e-03 -2.190517e-05) (0.000000e+00 0.000000e+00 0.000000e+00)) ((2.199669e-02 5.423323e-03 -3.093334e+00) (-1.181931e-06 1.164891e-05 2.292822e-03) (0.000000e+00 0.000000e+00 0.000000e+00))
9.000000e-03	((8.388075e+00 -1.945902e+01 -2.699441e-05) (1.396917e-02 5.128675e-03 -1.827359e-05) (0.000000e+00 0.000000e+00 0.000000e+00)) ((1.980917e-02 3.310656e-03 -3.703111e+00) (-6.926063e-07 1.075387e-05 2.392077e-03) (0.000000e+00 0.000000e+00 0.000000e+00))
1.000000e-02	((9.812314e+00 -2.274705e+01 7.918882e-04) (1.463023e-02 5.253510e-03 -2.023452e-05) (0.000000e+00 0.000000e+00 0.000000e+00)) ((1.825431e-02 3.465284e-03 -4.358939e+00) (-1.559949e-06 1.066651e-05 2.482792e-03) (0.000000e+00 0.000000e+00 0.000000e+00))
1.100000e-02	((1.107865e+01 -2.577773e+01 1.478907e-03) (1.529045e-02 5.346046e-03 -2.147854e-05) (0.000000e+00 0.000000e+00 0.000000e+00)) ((2.199468e-02 6.089141e-03 -4.941972e+00) (-2.557951e-06 1.377833e-05 2.571104e-03) (0.000000e+00 0.000000e+00 0.000000e+00))
1.200000e-02	((1.225595e+01 -2.864833e+01 1.341392e-03) (1.593849e-02 5.424541e-03 -2.592393e-05) (0.000000e+00 0.000000e+00 0.000000e+00)) ((2.921354e-02 1.112738e-02 -5.480536e+00) (-4.158593e-06 1.436518e-05 2.655694e-03) (0.000000e+00 0.000000e+00 0.000000e+00))
1.300000e-02	((1.328994e+01 -3.130232e+01 8.867145e-04) (1.658965e-02 5.498610e-03 -2.481379e-05) (0.000000e+00 0.000000e+00 0.000000e+00)) ((3.534355e-02 1.594323e-02 -5.957396e+00) (-2.185637e-06 1.461702e-05 2.745371e-03) (0.000000e+00 0.000000e+00 0.000000e+00))
1.400000e-02	((1.430461e+01 -3.395700e+01 2.316400e-04) (1.723965e-02 5.606320e-03 -3.000020e-05) (0.000000e+00 0.000000e+00 0.000000e+00)) ((3.168761e-02 1.691436e-02 -6.428327e+00) (-2.329385e-06 1.472347e-05 2.842115e-03) (0.000000e+00 0.000000e+00 0.000000e+00))
1.500000e-02	((1.554273e+01 -3.705041e+01 3.783775e-04) (1.790873e-02 5.720287e-03 -3.336597e-05) (0.000000e+00 0.000000e+00 0.000000e+00)) ((3.145437e-02 1.635248e-02 -6.994011e+00) (-1.865020e-06 1.679003e-05 2.941449e-03) (0.000000e+00 0.000000e+00 0.000000e+00))
1.600000e-02	((1.714488e+01 -4.089140e+01 5.724062e-04) (1.859409e-02 5.845886e-03 -3.536833e-05) (0.000000e+00 0.000000e+00 0.000000e+00)) ((2.464711e-02 1.317282e-02 -7.716636e+00) (-2.352211e-06 1.732066e-05 3.042852e-03) (0.000000e+00 0.000000e+00 0.000000e+00))
1.700000e-02	((1.904591e+01 -4.539694e+01 1.222945e-03) (1.932175e-02 5.976871e-03 -3.430527e-05) (0.000000e+00 0.000000e+00 0.000000e+00)) ((2.036748e-02 9.855540e-03 -8.574514e+00) (-2.409359e-06 1.858583e-05 3.146192e-03) (0.000000e+00 0.000000e+00 0.000000e+00))
1.800000e-02	((2.116885e+01 -5.043515e+01 2.058668e-03) (2.008597e-02 6.107228e-03 -3.445084e-05) (0.000000e+00 0.000000e+00 0.000000e+00)) ((1.563563e-02 6.494168e-03 -9.533949e+00) (-3.502977e-06 1.951155e-05 3.250775e-03) (0.000000e+00 0.000000e+00 0.000000e+00))
1.900000e-02	((2.332462e+01 -5.574004e+01 2.650884e-03) (2.085983e-02 6.227855e-03 -3.454620e-05) (0.000000e+00 0.000000e+00 0.000000e+00)) ((1.673141e-02 5.699222e-03 -1.052156e+01) (-3.960477e-06 2.063260e-05 3.353366e-03) (0.000000e+00 0.000000e+00 0.000000e+00))
2.000000e-02	((2.543039e+01 -6.112775e+01 2.662311e-03) (2.162216e-02 6.337097e-03 -3.473519e-05) (0.000000e+00 0.000000e+00 0.000000e+00)) ((2.254485e-02 7.254519e-03 -1.150195e+01) (-4.446780e-06 2.060238e-05 3.453108e-03) (0.000000e+00 0.000000e+00 0.000000e+00))
2.100000e-02	((2.742448e+01 -6.645402e+01 1.714961e-03) (2.235497e-02 6.434856e-03 -3.445148e-05) (0.000000e+00 0.000000e+00 0.000000e+00)) ((3.155272e-02 9.927190e-03 -1.244521e+01) (-4.777796e-06 2.129621e-05 3.550696e-03) (0.000000e+00 0.000000e+00 0.000000e+00))
2.200000e-02	((2.930322e+01 -7.163530e+01 9.783717e-04) (2.304882e-02 6.521671e-03 -3.593175e-05) (0.000000e+00 0.000000e+00 0.000000e+00)) ((4.354759e-02 1.393544e-02 -1.334637e+01) (-4.641772e-06 2.036554e-05 3.643852e-03) (0.000000e+00 0.000000e+00 0.000000e+00))
2.300000e-02	((3.113254e+01 -7.673283e+01 1.159909e-03) (2.370287e-02 6.595704e-03 -3.521400e-05) (0.000000e+00 0.000000e+00 0.000000e+00)) ((6.266098e-02 1.954900e-02 -1.423087e+01) (-4.616823e-06 2.029693e-05 3.733390e-03) (0.000000e+00 0.000000e+00 0.000000e+00))
2.400000e-02	((3.303219e+01 -8.193848e+01 1.775994e-03) (2.432342e-02 6.668691e-03 -3.475386e-05) (0.000000e+00 0.000000e+00 0.000000e+00)) ((7.722492e-02 2.316611e-02 -1.514767e+01) (-4.891647e-06 2.053469e-05 3.821157e-03) (0.000000e+00 0.000000e+00 0.000000e+00))
2.500000e-02	((3.518411e+01 -8.765089e+01 2.359871e-03) (2.492520e-02 6.747509e-03 -3.279483e-05) (0.000000e+00 0.000000e+00 0.000000e+00)) ((7.859126e-02 2.121929e-02 -1.617540e+01) (-4.459018e-06 1.974347e-05 3.911733e-03) (0.000000e+00 0.000000e+00 0.000000e+00))
2.600000e-02	((3.765961e+01 -9.401166e+01 2.864047e-03) (2.551778e-02 6.834467e-03 -3.381386e-05) (0.000000e+00 0.000000e+00 0.000000e+00)) ((7.519451e-02 1.795819e-02 -1.734405e+01) (-4.285532e-06 1.957615e-05 4.004381e-03) (0.000000e+00 0.000000e+00 0.000000e+00))
2.700000e-02	((4.044928e+01 -1.010555e+02 2.821559e-03) (2.610556e-02 6.910215e-03 -3.611946e-05) (0.000000e+00 0.000000e+00 0.000000e+00)) ((6.503093e-02 1.302077e-02 -1.864889e+01) (-4.164584e-06 2.025881e-05 4.095530e-03) (0.000000e+00 0.000000e+00 0.000000e+00))
2.800000e-02	((4.346974e+01 -1.086305e+02 2.021571e-03) (2.666849e-02 6.963135e-03 -4.134294e-05) (0.000000e+00 0.000000e+00 0.000000e+00)) ((6.305917e-02 1.266838e-02 -2.005428e+01) (-4.658321e-06 2.135560e-05 4.179798e-03) (0.000000e+00 0.000000e+00 0.000000e+00))
2.900000e-02	((4.656993e+01 -1.164556e+02 7.149769e-04) (2.720595e-02 6.992165e-03 -4.578524e-05) (0.000000e+00 0.000000e+00 0.000000e+00)) ((5.945914e-02 1.384036e-02 -2.149448e+01) (-5.035775e-06 2.275509e-05 4.258297e-03) (0.000000e+00 0.000000e+00 0.000000e+00))
3.000000e-02	((4.973454e+01 -1.244845e+02 -8.364963e-04) (2.765245e-02 6.967539e-03 -5.556844e-05) (0.000000e+00 0.000000e+00 0.000000e+00)) ((5.622867e-02 1.674815e-02 -2.296183e+01) (-5.990785e-06 2.565791e-05 4.319626e-03) (0.000000e+00 0.000000e+00 0.000000e+00))
3.100000e-02	((5.289937e+01 -1.325715e+02 -2.604521e-03) (2.801560e-02 6.922026e-03 -6.649916e-05) (0.000000e+00 0.000000e+00 0.000000e+00)) ((4.789172e-02 1.763291e-02 -2.442742e+01) (-7.371481e-06 3.013669e-05 4.373435e-03) (0.000000e+00 0.000000e+00 0.000000e+00))
3.200000e-02	((5.607160e+01 -1.406483e+02 -3.448011e-03) (2.836612e-02 6.884894e-03 -8.063012e-05) (0.000000e+00 0.000000e+00 0.000000e+00)) ((4.111153e-02 1.943734e-02 -2.589400e+01) (-8.673747e-06 3.388064e-05 4.429274e-03) (0.000000e+00 0.000000e+00 0.000000e+00))
3.300000e-02	((5.929284e+01 -1.488374e+02 -4.819813e-03) (2.872574e-02 6.858501e-03 -9.189164e-05) (0.000000e+00 0.000000e+00 0.000000e+00)) ((3.045073e-02 2.031690e-02 -2.738037e+01) (-9.670019e-06 3.766755e-05 4.489101e-03) (0.000000e+00 0.000000e+00 0.000000e+00))
3.400000e-02	((6.263643e+01 -1.572049e+02 -4.807776e-03) (2.909468e-02 6.854956e-03 -1.059696e-04) (0.000000e+00 0.000000e+00 0.000000e+00)) ((2.543813e-02 2.147313e-02 -2.891776e+01) (-1.030081e-05 4.094046e-05 4.554047e-03) (0.000000e+00 0.000000e+00 0.000000e+00))
3.500000e-02	((6.611093e+01 -1.657676e+02 -4.518416e-03) (2.958064e-02 6.902479e-03 -1.143518e-04) (0.000000e+00 0.000000e+00 0.000000e+00)) ((2.173041e-02 2.098021e-02 -3.050624e+01) (-1.095105e-05 4.099891e-05 4.637310e-03) (0.000000e+00 0.000000e+00 0.000000e+00))
3.600000e-02	((6.976668e+01 -1.746373e+02 -3.530717e-03) (3.010723e-02 6.969856e-03 -1.223564e-04) (0.000000e+00 0.000000e+00 0.000000e+00)) ((1.726430e-02 1.791519e-02 -3.216837e+01) (-1.067042e-05 4.033842e-05 4.725923e-03) (0.000000e+00 0.000000e+00 0.000000e+00))
3.700000e-02	((7.355420e+01 -1.837437e+02 -3.393948e-03) (3.062374e-02 7.056930e-03 -1.297721e-04) (0.000000e+00 0.000000e+00 0.000000e+00)) ((9.896990e-03 1.286806e-02 -3.388153e+01) (-9.849649e-06 3.996209e-05 4.816975e-03) (0.000000e+00 0.000000e+00 0.000000e+00))
3.800000e-02	((7.752405e+01 -1.932121e+02 -3.175920e-03) (3.118322e-02 7.170631e-03 -1.342697e-04) (0.000000e+00 0.000000e+00 0.000000e+00)) ((1.414180e-02 1.311432e-02 -3.567255e+01) (-1.076658e-05 3.465792e-05 4.913695e-03) (0.000000e+00 0.000000e+00 0.000000e+00))
3.900000e-02	((8.165817e+01 -2.030136e+02 -2.386026e-03) (3.184281e-02 7.282197e-03 -1.407824e-04) (0.000000e+00 0.000000e+00 0.000000e+00)) ((1.795724e-02 1.154159e-02 -3.753129e+01) (-1.149651e-05 3.491237e-05 5.019966e-03) (0.000000e+00 0.000000e+00 0.000000e+00))
4.000000e-02	((8.593814e+01 -2.131043e+02 -8.147621e-04) (3.254877e-02 7.411436e-03 -1.499674e-04) (0.000000e+00 0.000000e+00 0.000000e+00)) ((1.886769e-02 9.010826e-03 -3.945524e+01) (-1.124252e-05 3.512110e-05 5.132028e-03) (0.000000e+00 0.000000e+00 0.000000e+00))
4.100000e-02	((9.028441e+01 -2.233222e+02 4.772161e-04) (3.328730e-02 7.547472e-03 -1.526135e-04) (0.000000e+00 0.000000e+00 0.000000e+00)) ((1.778558e-02 5.592315e-03 -4.140728e+01) (-1.031156e-05 3.315008e-05 5.247990e-03) (0.000000e+00 0.000000e+00 0.000000e+00))
4.200000e-02	((9.471029e+01 -2.336871e+02 1.959761e-03) (3.407895e-02 7.715425e-03 -1.547954e-04) (0.000000e+00 0.000000e+00 0.000000e+00)) ((7.669488e-03 -3.027652e-04 -4.340054e+01) (-9.905027e-06 2.989182e-05 5.371903e-03) (0.000000e+00 0.000000e+00 0.000000e+00))
4.300000e-02	((9.912959e+01 -2.439810e+02 4.222407e-03) (3.489796e-02 7.901138e-03 -1.555127e-04) (0.000000e+00 0.000000e+00 0.000000e+00)) ((4.029988e-03 -7.401247e-03 -4.538762e+01) (-9.928333e-06 2.556023e-05 5.501390e-03) (0.000000e+00 0.000000e+00 0.000000e+00))
4.400000e-02	((1.036166e+02 -2.543301e+02 6.888026e-03) (3.574334e-02 8.113305e-03 -1.563655e-04) (0.000000e+00 0.000000e+00 0.000000e+00)) ((-3.352959e-03 -1.704508e-02 -4.740728e+01) (-9.436054e-06 2.027827e-05 5.636224e-03) (0.000000e+00 0.000000e+00 0.000000e+00))
4.500000e-02	((1.081121e+02 -2.645145e+02 9.314250e-03) (3.661790e-02 8.335935e-03 -1.519144e-04) (0.000000e+00 0.000000e+00 0.000000e+00)) ((-7.552112e-03 -2.676889e-02 -4.942328e+01) (-8.063675e-06 1.355184e-05 5.775801e-03) (0.000000e+00 0.000000e+00 0.000000e+00))
4.600000e-02	((1.126409e+02 -2.745814e+02 1.104253e-02) (3.753216e-02 8.586122e-03 -1.476644e-04) (0.000000e+00 0.000000e+00 0.000000e+00)) ((-9.831114e-03 -3.295963e-02 -5.145173e+01) (-7.769634e-06 7.462844e-06 5.921928e-03) (0.000000e+00 0.000000e+00 0.000000e+00))
4.700000e-02	((1.171746e+02 -2.844365e+02 1.189046e-02) (3.848937e-02 8.847372e-03 -1.417923e-04) (0.000000e+00 0.000000e+00 0.000000e+00)) ((-3.176576e-03 -3.306168e-02 -5.347237e+01) (-6.100733e-06 1.087124e-06 6.073918e-03) (0.000000e+00 0.000000e+00 0.000000e+00))
4.800000e-02	((1.217574e+02 -2.942298e+02 1.294882e-02) (3.949255e-02 9.140278e-03 -1.353621e-04) (0.000000e+00 0.000000e+00 0.000000e+00)) ((-2.196772e-03 -3.453901e-02 -5.551477e+01) (-6.174769e-06 -5.188494e-06 6.233122e-03) (0.000000e+00 0.000000e+00 0.000000e+00))
4.900000e-02	((1.262958e+02 -3.037627e+02 1.375595e-02) (4.053807e-02 9.445978e-03 -1.280361e-04) (0.000000e+00 0.000000e+00 0.000000e+00)) ((-1.574538e-02 -4.044963e-02 -5.752850e+01) (-3.912738e-06 -1.127650e-05 6.398160e-03) (0.000000e+00 0.000000e+00 0.000000e+00))
5.000000e-02	((1.308032e+02 -3.130897e+02 1.637925e-02) (4.161960e-02 9.785659e-03 -1.238646e-04) (0.000000e+00 0.000000e+00 0.000000e+00)) ((-1.739625e-02 -4.192708e-02 -5.952584e+01) (-3.695570e-06 -1.638454e-05 6.570188e-03) (0.000000e+00 0.000000e+00 0.000000e+00))
5.100000e-02	((1.352629e+02 -3.221757e+02 1.950739e-02) (4.272400e-02 1.014055e-02 -1.123840e-04) (0.000000e+00 0.000000e+00 0.000000e+00)) ((-2.211727e-02 -4.616182e-02 -6.149459e+01) (-2.555746e-06 -2.246395e-05 6.747672e-03) (0.000000e+00 0.000000e+00 0.000000e+00))
5.200000e-02	((1.395821e+02 -3.308121e+02 2.387151e-02) (4.385133e-02 1.052296e-02 -1.033093e-04) (0.000000e+00 0.000000e+00 0.000000e+00)) ((-3.476984e-02 -5.350700e-02 -6.339621e+01) (-3.199708e-06 -2.854126e-05 6.930695e-03) (0.000000e+00 0.000000e+00 0.000000e+00))
5.300000e-02	((1.436896e+02 -3.388243e+02 2.793714e-02) (4.499048e-02 1.092221e-02 -9.541430e-05) (0.000000e+00 0.000000e+00 0.000000e+00)) ((-4.398178e-02 -6.075409e-02 -6.519249e+01) (-3.153922e-07 -3.611550e-05 7.118558e-03) (0.000000e+00 0.000000e+00 0.000000e+00))
5.400000e-02	((1.475499e+02 -3.461249e+02 3.115358e-02) (4.613805e-02 1.134612e-02 -9.327328e-05) (0.000000e+00 0.000000e+00 0.000000e+00)) ((-5.710417e-02 -6.679019e-02 -6.687161e+01) (-3.292418e-07 -4.052259e-05 7.310979e-03) (0.000000e+00 0.000000e+00 0.000000e+00))
5.500000e-02	((1.511254e+02 -3.526103e+02 3.366306e-02) (4.728854e-02 1.178649e-02 -8.683388e-05) (0.000000e+00 0.000000e+00 0.000000e+00)) ((-6.777604e-02 -6.960661e-02 -6.841123e+01) (2.380249e-06 -4.706519e-05 7.506868e-03) (0.000000e+00 0.000000e+00 0.000000e+00))
5.600000e-02	((1.544454e+02 -3.583551e+02 3.625870e-02) (4.845077e-02 1.225448e-02 -8.777915e-05) (0.000000e+00 0.000000e+00 0.000000e+00)) ((-6.603282e-02 -6.562451e-02 -6.982781e+01) (2.635112e-06 -5.007147e-05 7.707904e-03) (0.000000e+00 0.000000e+00 0.000000e+00))
5.700000e-02	((1.575441e+02 -3.634465e+02 3.830002e-02) (4.962260e-02 1.274411e-02 -8.322634e-05) (0.000000e+00 0.000000e+00 0.000000e+00)) ((-5.679017e-02 -5.738472e-02 -7.113504e+01) (5.110187e-06 -5.392451e-05 7.913508e-03) (0.000000e+00 0.000000e+00 0.000000e+00))
5.800000e-02	((1.605146e+02 -3.680901e+02 3.903001e-02) (5.080255e-02 1.325612e-02 -8.037289e-05) (0.000000e+00 0.000000e+00 0.000000e+00)) ((-5.872887e-02 -5.387796e-02 -7.237738e+01) (5.703482e-06 -5.810091e-05 8.123900e-03) (0.000000e+00 0.000000e+00 0.000000e+00))
5.900000e-02	((1.633948e+02 -3.723988e+02 4.091906e-02) (5.199129e-02 1.377896e-02 -7.382385e-05) (0.000000e+00 0.000000e+00 0.000000e+00)) ((-5.472425e-02 -4.912140e-02 -7.357368e+01) (8.497780e-06 -6.191146e-05 8.337147e-03) (0.000000e+00 0.000000e+00 0.000000e+00))
6.000000e-02	((1.661481e+02 -3.764077e+02 4.196211e-02) (5.318267e-02 1.430338e-02 -6.381335e-05) (0.000000e+00 0.000000e+00 0.000000e+00)) ((-5.811402e-02 -4.938013e-02 -7.471505e+01) (8.589532e-06 -6.730678e-05 8.549961e-03) (0.000000e+00 0.000000e+00 0.000000e+00))
6.100000e-02	((1.688100e+02 -3.802401e+02 4.324917e-02) (5.437974e-02 1.483252e-02 -5.017378e-05) (0.000000e+00 0.000000e+00 0.000000e+00)) ((-6.198890e-02 -5.207546e-02 -7.582157e+01) (1.018079e-05 -7.369133e-05 8.763132e-03) (0.000000e+00 0.000000e+00 0.000000e+00))
6.200000e-02	((1.713761e+02 -3.839477e+02 4.538204e-02) (5.557157e-02 1.536120e-02 -3.732257e-05) (0.000000e+00 0.000000e+00 0.000000e+00)) ((-6.233322e-02 -5.315828e-02 -7.689484e+01) (1.033766e-05 -7.923168e-05 8.974904e-03) (0.000000e+00 0.000000e+00 0.000000e+00))
6.300000e-02	((1.738439e+02 -3.875670e+02 4.687727e-02) (5.677154e-02 1.589032e-02 -1.232559e-05) (0.000000e+00 0.000000e+00 0.000000e+00)) ((-7.167180e-02 -5.585947e-02 -7.793600e+01) (1.092859e-05 -8.973090e-05 9.186111e-03) (0.000000e+00 0.000000e+00 0.000000e+00))
6.400000e-02	((1.761951e+02 -3.910767e+02 4.716001e-02) (5.797191e-02 1.641600e-02 8.014282e-06) (0.000000e+00 0.000000e+00 0.000000e+00)) ((-8.331333e-02 -5.783940e-02 -7.893604e+01) (1.126303e-05 -9.696940e-05 9.395766e-03) (0.000000e+00 0.000000e+00 0.000000e+00))
6.500000e-02	((1.784525e+02 -3.945606e+02 4.737996e-02) (5.914120e-02 1.691717e-02 3.404471e-05) (0.000000e+00 0.000000e+00 0.000000e+00)) ((-9.997628e-02 -5.925567e-02 -7.990672e+01) (1.132311e-05 -1.062303e-04 9.597216e-03) (0.000000e+00 0.000000e+00 0.000000e+00))
6.600000e-02	((1.806520e+02 -3.981406e+02 4.629591e-02) (6.031502e-02 1.741122e-02 5.505028e-05) (0.000000e+00 0.000000e+00 0.000000e+00)) ((-1.104508e-01 -5.650722e-02 -8.086511e+01) (1.125405e-05 -1.140952e-04 9.796284e-03) (0.000000e+00 0.000000e+00 0.000000e+00))
6.700000e-02	((1.827994e+02 -4.018487e+02 4.517494e-02) (6.148721e-02 1.789111e-02 8.132636e-05) (0.000000e+00 0.000000e+00 0.000000e+00)) ((-1.215038e-01 -5.180584e-02 -8.181361e+01) (1.141030e-05 -1.229097e-04 9.992304e-03) (0.000000e+00 0.000000e+00 0.000000e+00))
6.800000e-02	((1.849147e+02 -4.057425e+02 4.372721e-02) (6.264680e-02 1.836259e-02 9.724708e-05) (0.000000e+00 0.000000e+00 0.000000e+00)) ((-1.325695e-01 -4.739752e-02 -8.276073e+01) (1.223731e-05 -1.294322e-04 1.018574e-02) (0.000000e+00 0.000000e+00 0.000000e+00))
6.900000e-02	((1.869723e+02 -4.097735e+02 4.358619e-02) (6.377659e-02 1.882449e-02 1.095204e-04) (0.000000e+00 0.000000e+00 0.000000e+00)) ((-1.508662e-01 -4.793491e-02 -8.369409e+01) (1.406742e-05 -1.320750e-04 1.037500e-02) (0.000000e+00 0.000000e+00 0.000000e+00))
7.000000e-02	((1.889435e+02 -4.138521e+02 4.503038e-02) (6.488802e-02 1.928646e-02 1.201100e-04) (0.000000e+00 0.000000e+00 0.000000e+00)) ((-1.715702e-01 -5.179207e-02 -8.459890e+01) (1.574065e-05 -1.367201e-04 1.056297e-02) (0.000000e+00 0.000000e+00 0.000000e+00))
7.100000e-02	((1.908086e+02 -4.179306e+02 4.581335e-02) (6.596449e-02 1.972187e-02 1.317950e-04) (0.000000e+00 0.000000e+00 0.000000e+00)) ((-2.096765e-01 -6.474417e-02 -8.546566e+01) (1.705210e-05 -1.407899e-04 1.074368e-02) (0.000000e+00 0.000000e+00 0.000000e+00))
7.200000e-02	((1.926097e+02 -4.220828e+02 4.795165e-02) (6.702236e-02 2.013653e-02 1.455787e-04) (0.000000e+00 0.000000e+00 0.000000e+00)) ((-2.544833e-01 -8.243369e-02 -8.631515e+01) (1.826250e-05 -1.473813e-04 1.092024e-02) (0.000000e+00 0.000000e+00 0.000000e+00))
7.300000e-02	((1.943880e+02 -4.264166e+02 4.795864e-02) (6.806467e-02 2.052340e-02 1.570737e-04) (0.000000e+00 0.000000e+00 0.000000e+00)) ((-3.025533e-01 -9.912181e-02 -8.716818e+01) (1.905696e-05 -1.533418e-04 1.109143e-02) (0.000000e+00 0.000000e+00 0.000000e+00))
7.400000e-02	((1.961864e+02 -4.309981e+02 4.794654e-02) (6.907105e-02 2.088438e-02 1.691871e-04) (0.000000e+00 0.000000e+00 0.000000e+00)) ((-3.404883e-01 -1.115866e-01 -8.804510e+01) (1.869482e-05 -1.603093e-04 1.125510e-02) (0.000000e+00 0.000000e+00 0.000000e+00))
7.500000e-02	((1.980459e+02 -4.359192e+02 4.885890e-02) (7.006015e-02 2.120808e-02 1.806423e-04) (0.000000e+00 0.000000e+00 0.000000e+00)) ((-3.749701e-01 -1.180050e-01 -8.896488e+01) (1.948042e-05 -1.664995e-04 1.140943e-02) (0.000000e+00 0.000000e+00 0.000000e+00))
7.600000e-02	((1.999772e+02 -4.411700e+02 5.103041e-02) (7.102304e-02 2.152085e-02 1.899472e-04) (0.000000e+00 0.000000e+00 0.000000e+00)) ((-4.019462e-01 -1.217183e-01 -8.993121e+01) (1.940563e-05 -1.729884e-04 1.155881e-02) (0.000000e+00 0.000000e+00 0.000000e+00))
7.700000e-02	((2.019564e+02 -4.466882e+02 5.021304e-02) (7.198257e-02 2.183118e-02 2.037687e-04) (0.000000e+00 0.000000e+00 0.000000e+00)) ((-4.367763e-01 -1.302722e-01 -9.092784e+01) (2.024304e-05 -1.783061e-04 1.170580e-02) (0.000000e+00 0.000000e+00 0.000000e+00))
7.800000e-02	((2.039710e+02 -4.524159e+02 4.904753e-02) (7.291539e-02 2.212888e-02 2.164906e-04) (0.000000e+00 0.000000e+00 0.000000e+00)) ((-4.779975e-01 -1.424084e-01 -9.194982e+01) (1.812077e-05 -1.837742e-04 1.184723e-02) (0.000000e+00 0.000000e+00 0.000000e+00))
7.900000e-02	((2.061329e+02 -4.584843e+02 4.745261e-02) (7.382402e-02 2.239131e-02 2.198774e-04) (0.000000e+00 0.000000e+00 0.000000e+00)) ((-5.136964e-01 -1.543386e-01 -9.304177e+01) (1.933814e-05 -1.832380e-04 1.197850e-02) (0.000000e+00 0.000000e+00 0.000000e+00))
8.000000e-02	((2.084654e+02 -4.649011e+02 4.610544e-02) (7.473562e-02 2.265698e-02 2.311123e-04) (0.000000e+00 0.000000e+00 0.000000e+00)) ((-5.413355e-01 -1.651645e-01 -9.421441e+01) (1.596024e-05 -1.856043e-04 1.210889e-02) (0.000000e+00 0.000000e+00 0.000000e+00))
8.100000e-02	((2.109819e+02 -4.716750e+02 4.534491e-02) (7.567345e-02 2.290598e-02 2.400761e-04) (0.000000e+00 0.000000e+00 0.000000e+00)) ((-5.722995e-01 -1.830704e-01 -9.546903e+01) (1.438856e-05 -1.877884e-04 1.223584e-02) (0.000000e+00 0.000000e+00 0.000000e+00))
8.200000e-02	((2.134785e+02 -4.784846e+02 4.355858e-02) (7.664895e-02 2.313455e-02 2.553202e-04) (0.000000e+00 0.000000e+00 0.000000e+00)) ((-6.012396e-01 -2.019309e-01 -9.671886e+01) (9.684608e-06 -1.940808e-04 1.235979e-02) (0.000000e+00 0.000000e+00 0.000000e+00))
8.300000e-02	((2.158849e+02 -4.851905e+02 3.969967e-02) (7.766921e-02 2.334048e-02 2.554171e-04) (0.000000e+00 0.000000e+00 0.000000e+00)) ((-6.263027e-01 -2.161645e-01 -9.792612e+01) (8.924790e-06 -1.967853e-04 1.248181e-02) (0.000000e+00 0.000000e+00 0.000000e+00))
8.400000e-02	((2.181496e+02 -4.916798e+02 3.620911e-02) (7.874788e-02 2.354405e-02 2.516529e-04) (0.000000e+00 0.000000e+00 0.000000e+00)) ((-6.463212e-01 -2.296934e-01 -9.906429e+01) (8.777910e-06 -1.995831e-04 1.260616e-02) (0.000000e+00 0.000000e+00 0.000000e+00))
8.500000e-02	((2.203816e+02 -4.981626e+02 3.236343e-02) (7.984468e-02 2.377533e-02 2.443116e-04) (0.000000e+00 0.000000e+00 0.000000e+00)) ((-6.614805e-01 -2.408717e-01 -1.001815e+02) (8.694040e-06 -2.008955e-04 1.273640e-02) (0.000000e+00 0.000000e+00 0.000000e+00))
8.600000e-02	((2.222983e+02 -5.042325e+02 3.059136e-02) (8.088537e-02 2.404423e-02 2.356768e-04) (0.000000e+00 0.000000e+00 0.000000e+00)) ((-6.565131e-01 -2.458189e-01 -1.011571e+02) (1.136342e-05 -2.026422e-04 1.286964e-02) (0.000000e+00 0.000000e+00 0.000000e+00))
8.700000e-02	((2.237880e+02 -5.097392e+02 2.630906e-02) (8.188777e-02 2.434248e-02 2.287631e-04) (0.000000e+00 0.000000e+00 0.000000e+00)) ((-6.461681e-01 -2.462812e-01 -1.019444e+02) (1.359277e-05 -2.038623e-04 1.300668e-02) (0.000000e+00 0.000000e+00 0.000000e+00))
8.800000e-02	((2.248722e+02 -5.146815e+02 2.172200e-02) (8.287566e-02 2.466917e-02 2.193810e-04) (0.000000e+00 0.000000e+00 0.000000e+00)) ((-6.498337e-01 -2.525629e-01 -1.025534e+02) (1.513078e-05 -2.022232e-04 1.315255e-02) (0.000000e+00 0.000000e+00 0.000000e+00))
8.900000e-02	((2.256567e+02 -5.192485e+02 1.512478e-02) (8.385709e-02 2.498878e-02 1.995562e-04) (0.000000e+00 0.000000e+00 0.000000e+00)) ((-6.580647e-01 -2.595892e-01 -1.030344e+02) (1.825619e-05 -2.009085e-04 1.330166e-02) (0.000000e+00 0.000000e+00 0.000000e+00))
9.000000e-02	((2.259836e+02 -5.231676e+02 8.837427e-03) (8.486109e-02 2.532364e-02 1.866062e-04) (0.000000e+00 0.000000e+00 0.000000e+00)) ((-6.743995e-01 -2.685587e-01 -1.033206e+02) (2.154438e-05 -2.014574e-04 1.346083e-02) (0.000000e+00 0.000000e+00 0.000000e+00))
9.100000e-02	((2.257440e+02 -5.261486e+02 2.307743e-03) (8.585464e-02 2.565597e-02 1.706681e-04) (0.000000e+00 0.000000e+00 0.000000e+00)) ((-6.873156e-01 -2.771994e-01 -1.033576e+02) (2.634576e-05 -2.009687e-04 1.362411e-02) (0.000000e+00 0.000000e+00 0.000000e+00))
9.200000e-02	((2.251632e+02 -5.285543e+02 -1.485391e-03) (8.685046e-02 2.599736e-02 1.524757e-04) (0.000000e+00 0.000000e+00 0.000000e+00)) ((-7.089176e-01 -2.950386e-01 -1.032489e+02) (3.074517e-05 -2.047349e-04 1.379372e-02) (0.000000e+00 0.000000e+00 0.000000e+00))
9.300000e-02	((2.246598e+02 -5.308888e+02 -6.733176e-03) (8.783087e-02 2.634851e-02 1.375083e-04) (0.000000e+00 0.000000e+00 0.000000e+00)) ((-7.312679e-01 -3.192321e-01 -1.031666e+02) (3.481020e-05 -2.069754e-04 1.396738e-02) (0.000000e+00 0.000000e+00 0.000000e+00))
9.400000e-02	((2.245732e+02 -5.336681e+02 -9.168504e-03) (8.880000e-02 2.671490e-02 1.282961e-04) (0.000000e+00 0.000000e+00 0.000000e+00)) ((-7.512954e-01 -3.428694e-01 -1.032586e+02) (3.849566e-05 -2.129096e-04 1.414513e-02) (0.000000e+00 0.000000e+00 0.000000e+00))
9.500000e-02	((2.250917e+02 -5.372301e+02 -1.230017e-02) (8.976847e-02 2.708434e-02 1.110528e-04) (0.000000e+00 0.000000e+00 0.000000e+00)) ((-7.553481e-01 -3.620946e-01 -1.036115e+02) (3.947735e-05 -2.095942e-04 1.432216e-02) (0.000000e+00 0.000000e+00 0.000000e+00))
9.600000e-02	((2.261791e+02 -5.416619e+02 -1.329671e-02) (9.072143e-02 2.746583e-02 1.019251e-04) (0.000000e+00 0.000000e+00 0.000000e+00)) ((-7.459509e-01 -3.775576e-01 -1.042235e+02) (4.201742e-05 -2.129925e-04 1.450013e-02) (0.000000e+00 0.000000e+00 0.000000e+00))
9.700000e-02	((2.276808e+02 -5.468468e+02 -1.661065e-02) (9.169390e-02 2.784160e-02 8.565768e-05) (0.000000e+00 0.000000e+00 0.000000e+00)) ((-7.304358e-01 -3.911781e-01 -1.050352e+02) (4.524605e-05 -2.124467e-04 1.467537e-02) (0.000000e+00 0.000000e+00 0.000000e+00))
9.800000e-02	((2.294022e+02 -5.524953e+02 -2.106027e-02) (9.263655e-02 2.818970e-02 6.763989e-05) (0.000000e+00 0.000000e+00 0.000000e+00)) ((-7.053241e-01 -4.026081e-01 -1.059619e+02) (5.095225e-05 -2.179283e-04 1.483958e-02) (0.000000e+00 0.000000e+00 0.000000e+00))
9.900000e-02	((2.312045e+02 -5.583800e+02 -2.920491e-02) (9.352480e-02 2.848572e-02 4.386074e-05) (0.000000e+00 0.000000e+00 0.000000e+00)) ((-6.854419e-01 -4.080759e-01 -1.069390e+02) (5.356309e-05 -2.109480e-04 1.498405e-02) (0.000000e+00 0.000000e+00 0.000000e+00))
1.000000e-01	((2.330301e+02 -5.642732e+02 -3.573582e-02) (9.436545e-02 2.874844e-02 2.590313e-05) (0.000000e+00 0.000000e+00 0.000000e+00)) ((-6.549971e-01 -4.056384e-01 -1.079245e+02) (5.949017e-05 -2.103626e-04 1.511449e-02) (0.000000e+00 0.000000e+00 0.000000e+00))
1.010000e-01	((2.349634e+02 -5.701462e+02 -4.293690e-02) (9.516409e-02 2.897241e-02 2.026196e-05) (0.000000e+00 0.000000e+00 0.000000e+00)) ((-6.315379e-01 -3.995445e-01 -1.089386e+02) (6.493706e-05 -2.129061e-04 1.523049e-02) (0.000000e+00 0.000000e+00 0.000000e+00))
1.020000e-01	((2.371524e+02 -5.761255e+02 -4.626314e-02) (9.592907e-02 2.915006e-02 1.881097e-05) (0.000000e+00 0.000000e+00 0.000000e+00)) ((-5.980185e-01 -3.860415e-01 -1.100331e+02) (6.992703e-05 -2.166654e-04 1.532828e-02) (0.000000e+00 0.000000e+00 0.000000e+00))
1.030000e-01	((2.396801e+02 -5.823542e+02 -5.021086e-02) (9.667923e-02 2.930715e-02 2.521284e-05) (0.000000e+00 0.000000e+00 0.000000e+00)) ((-5.637574e-01 -3.684212e-01 -1.112406e+02) (7.288607e-05 -2.216674e-04 1.541828e-02) (0.000000e+00 0.000000e+00 0.000000e+00))
1.040000e-01	((2.424591e+02 -5.887936e+02 -5.245844e-02) (9.741744e-02 2.945994e-02 2.378346e-05) (0.000000e+00 0.000000e+00 0.000000e+00)) ((-5.246986e-01 -3.455948e-01 -1.125318e+02) (7.917156e-05 -2.270694e-04 1.550479e-02) (0.000000e+00 0.000000e+00 0.000000e+00))
1.050000e-01	((2.453240e+02 -5.953252e+02 -5.896109e-02) (9.815123e-02 2.960834e-02 3.290177e-05) (0.000000e+00 0.000000e+00 0.000000e+00)) ((-5.004631e-01 -3.327987e-01 -1.138490e+02) (8.109938e-05 -2.280884e-04 1.558912e-02) (0.000000e+00 0.000000e+00 0.000000e+00))
1.060000e-01	((2.481405e+02 -6.018096e+02 -6.828810e-02) (9.888773e-02 2.975710e-02 3.227662e-05) (0.000000e+00 0.000000e+00 0.000000e+00)) ((-4.936999e-01 -3.354449e-01 -1.151395e+02) (8.523879e-05 -2.325185e-04 1.567250e-02) (0.000000e+00 0.000000e+00 0.000000e+00))
1.070000e-01	((2.507480e+02 -6.080637e+02 -7.788263e-02) (9.961502e-02 2.989799e-02 2.017903e-05) (0.000000e+00 0.000000e+00 0.000000e+00)) ((-5.035938e-01 -3.440189e-01 -1.163421e+02) (9.010069e-05 -2.283641e-04 1.575342e-02) (0.000000e+00 0.000000e+00 0.000000e+00))
1.080000e-01	((2.530694e+02 -6.139764e+02 -8.594536e-02) (1.003292e-01 3.004616e-02 8.482816e-06) (0.000000e+00 0.000000e+00 0.000000e+00)) ((-5.135935e-01 -3.479424e-01 -1.174277e+02) (9.459901e-05 -2.257565e-04 1.583567e-02) (0.000000e+00 0.000000e+00 0.000000e+00))
1.090000e-01	((2.550692e+02 -6.194852e+02 -9.411537e-02) (1.010277e-01 3.019851e-02 -5.992012e-06) (0.000000e+00 0.000000e+00 0.000000e+00)) ((-5.138937e-01 -3.334952e-01 -1.183828e+02) (9.678729e-05 -2.194870e-04 1.591808e-02) (0.000000e+00 0.000000e+00 0.000000e+00))
1.100000e-01	((2.567264e+02 -6.244981e+02 -1.014850e-01) (1.017330e-01 3.038597e-02 -1.266274e-05) (0.000000e+00 0.000000e+00 0.000000e+00)) ((-4.985720e-01 -3.048488e-01 -1.191957e+02) (9.777670e-05 -2.187586e-04 1.601219e-02) (0.000000e+00 0.000000e+00 0.000000e+00))
1.110000e-01	((2.580952e+02 -6.290897e+02 -1.097620e-01) (1.024499e-01 3.058932e-02 -1.395525e-05) (0.000000e+00 0.000000e+00 0.000000e+00)) ((-4.825741e-01 -2.726530e-01 -1.198889e+02) (9.901298e-05 -2.151343e-04 1.611192e-02) (0.000000e+00 0.000000e+00 0.000000e+00))