0.0005 	1.50207 	-1.97584e-09 	2.33167e-11
0.0015 	1.50958 	-7.89752e-09 	8.66992e-11
0.0025 	1.52375 	-1.11954e-08 	1.17313e-10
0.0035 	1.5432 	-1.34216e-08 	1.37415e-10
0.0045 	1.56612 	-1.47056e-08 	1.48585e-10
0.0055 	1.59101 	-1.52638e-08 	1.52903e-10
0.0065 	1.61673 	-1.52927e-08 	1.52322e-10
0.0075 	1.64245 	-1.49723e-08 	1.4858e-10
0.0085 	1.66764 	-1.44456e-08 	1.4301e-10
0.0095 	1.69196 	-1.38134e-08 	1.36549e-10
0.0105 	1.71527 	-1.31438e-08 	1.29819e-10
0.0115 	1.7375 	-1.24799e-08 	1.23211e-10
0.0125 	1.75868 	-1.18468e-08 	1.16945e-10
0.0135 	1.77884 	-1.12573e-08 	1.1113e-10
0.0145 	1.79807 	-1.07162e-08 	1.05805e-10
0.0155 	1.81644 	-1.02241e-08 	1.00966e-10
0.0165 	1.83403 	-9.77837e-09 	9.65853e-11
0.0175 	1.85091 	-9.37548e-09 	9.26247e-11
0.0185 	1.86717 	-9.0111e-09 	8.9041e-11
0.0195 	1.88284 	-8.68094e-09 	8.57911e-11
0.0205 	1.898 	-8.38091e-09 	8.28352e-11
0.0215 	1.91268 	-8.10734e-09 	8.01369e-11
0.0225 	1.92694 	-7.85688e-09 	7.76641e-11
0.0235 	1.94081 	-7.62669e-09 	7.53885e-11
0.0245 	1.95432 	-7.41421e-09 	7.32857e-11
0.0255 	1.9675 	-7.21727e-09 	7.13345e-11
0.0265 	1.98037 	-7.03405e-09 	6.9517e-11
0.0275 	1.99297 	-6.86291e-09 	6.78177e-11
0.0285 	2.0053 	-6.70251e-09 	6.62231e-11
0.0295 	2.01738 	-6.55162e-09 	6.47218e-11
0.0305 	2.02924 	-6.40925e-09 	6.33038e-11
0.0315 	2.04087 	-6.2745e-09 	6.19605e-11
0.0325 	2.0523 	-6.14659e-09 	6.06844e-11
0.0335 	2.06354 	-6.02486e-09 	5.94689e-11
0.0345 	2.0746 	-5.90872e-09 	5.83083e-11
0.0355 	2.08547 	-5.79764e-09 	5.71976e-11
0.0365 	2.09618 	-5.69116e-09 	5.61319e-11
0.0375 	2.10674 	-5.58887e-09 	5.51076e-11
0.0385 	2.11714 	-5.49041e-09 	5.4121e-11
0.0395 	2.12739 	-5.39545e-09 	5.3169e-11
0.0405 	2.1375 	-5.30371e-09 	5.22488e-11
0.0415 	2.14748 	-5.21492e-09 	5.13577e-11
0.0425 	2.15732 	-5.12885e-09 	5.04935e-11
0.0435 	2.16703 	-5.04528e-09 	4.96541e-11
0.0445 	2.17662 	-4.96402e-09 	4.88376e-11
0.0455 	2.18608 	-4.88491e-09 	4.80425e-11
0.0465 	2.19543 	-4.80779e-09 	4.72671e-11
0.0475 	2.20467 	-4.73252e-09 	4.65101e-11
0.0485 	2.21379 	-4.65897e-09 	4.57704e-11
0.0495 	2.22281 	-4.58704e-09 	4.50467e-11
0.0505 	2.23171 	-4.51662e-09 	4.43381e-11
0.0515 	2.24052 	-4.44761e-09 	4.36437e-11
0.0525 	2.24922 	-4.37995e-09 	4.29627e-11
0.0535 	2.25782 	-4.31353e-09 	4.22944e-11
0.0545 	2.26632 	-4.24832e-09 	4.16381e-11
0.0555 	2.27472 	-4.18425e-09 	4.09933e-11
0.0565 	2.28302 	-4.12124e-09 	4.03593e-11
0.0575 	2.29123 	-4.05926e-09 	3.97356e-11
0.0585 	2.29935 	-3.99827e-09 	3.9122e-11
0.0595 	2.30737 	-3.93823e-09 	3.85181e-11
0.0605 	2.3153 	-3.8791e-09 	3.79233e-11
0.0615 	2.32315 	-3.82084e-09 	3.73374e-11
0.0625 	2.3309 	-3.76344e-09 	3.67602e-11
0.0635 	2.33856 	-3.70686e-09 	3.61914e-11
0.0645 	2.34614 	-3.65107e-09 	3.56307e-11
0.0655 	2.35364 	-3.59606e-09 	3.50779e-11
0.0665 	2.36105 	-3.5418e-09 	3.45328e-11
0.0675 	2.36837 	-3.48829e-09 	3.39954e-11
0.0685 	2.37561 	-3.4355e-09 	3.34654e-11
0.0695 	2.38277 	-3.38343e-09 	3.29427e-11
0.0705 	2.38985 	-3.33205e-09 	3.24271e-11
0.0715 	2.39685 	-3.28136e-09 	3.19185e-11
0.0725 	2.40377 	-3.23134e-09 	3.14168e-11
0.0735 	2.41061 	-3.182e-09 	3.09221e-11
0.0745 	2.41737 	-3.1333e-09 	3.0434e-11
0.0755 	2.42405 	-3.08525e-09 	2.99525e-11
0.0765 	2.43066 	-3.03784e-09 	2.94775e-11
0.0775 	2.43719 	-2.99105e-09 	2.9009e-11
0.0785 	2.44365 	-2.94488e-09 	2.85468e-11
0.0795 	2.45004 	-2.89933e-09 	2.8091e-11
0.0805 	2.45634 	-2.85439e-09 	2.76413e-11
0.0815 	2.46258 	-2.81004e-09 	2.71978e-11
0.0825 	2.46875 	-2.7663e-09 	2.67605e-11
0.0835 	2.47484 	-2.72315e-09 	2.63293e-11
0.0845 	2.48086 	-2.68059e-09 	2.59041e-11
0.0855 	2.48682 	-2.63861e-09 	2.54848e-11
0.0865 	2.4927 	-2.5972e-09 	2.50713e-11
0.0875 	2.49852 	-2.55635e-09 	2.46636e-11
0.0885 	2.50427 	-2.51606e-09 	2.42616e-11
0.0895 	2.50995 	-2.47633e-09 	2.38654e-11
0.0905 	2.51556 	-2.43715e-09 	2.34747e-11
0.0915 	2.52111 	-2.39851e-09 	2.30895e-11
0.0925 	2.5266 	-2.36041e-09 	2.27099e-11
0.0935 	2.53202 	-2.32285e-09 	2.23358e-11
0.0945 	2.53738 	-2.28582e-09 	2.19671e-11
0.0955 	2.54267 	-2.24932e-09 	2.16037e-11
0.0965 	2.5479 	-2.21333e-09 	2.12457e-11
0.0975 	2.55307 	-2.17786e-09 	2.08929e-11
0.0985 	2.55818 	-2.14289e-09 	2.05452e-11
0.0995 	2.56323 	-2.10843e-09 	2.02026e-11
0.1005 	2.56822 	-2.07447e-09 	1.98651e-11
0.1015 	2.57316 	-2.04099e-09 	1.95326e-11
0.1025 	2.57803 	-2.008e-09 	1.9205e-11
0.1035 	2.58285 	-1.97549e-09 	1.88823e-11
0.1045 	2.58761 	-1.94345e-09 	1.85645e-11
0.1055 	2.59231 	-1.91188e-09 	1.82514e-11
0.1065 	2.59696 	-1.88078e-09 	1.7943e-11
0.1075 	2.60155 	-1.85014e-09 	1.76393e-11
0.1085 	2.60609 	-1.81996e-09 	1.73402e-11
0.1095 	2.61058 	-1.79022e-09 	1.70457e-11
0.1105 	2.61501 	-1.76093e-09 	1.67556e-11
0.1115 	2.61939 	-1.73207e-09 	1.647e-11
0.1125 	2.62371 	-1.70365e-09 	1.61888e-11
0.1135 	2.62799 	-1.67565e-09 	1.59119e-11
0.1145 	2.63222 	-1.64808e-09 	1.56392e-11
0.1155 	2.63639 	-1.62091e-09 	1.53708e-11
0.1165 	2.64052 	-1.59416e-09 	1.51064e-11
0.1175 	2.6446 	-1.56781e-09 	1.48462e-11
0.1185 	2.64863 	-1.54186e-09 	1.459e-11
0.1195 	2.65261 	-1.51631e-09 	1.43378e-11
0.1205 	2.65654 	-1.49114e-09 	1.40895e-11
0.1215 	2.66043 	-1.46636e-09 	1.38451e-11
0.1225 	2.66427 	-1.44196e-09 	1.36046e-11
0.1235 	2.66807 	-1.41794e-09 	1.33678e-11
0.1245 	2.67182 	-1.39428e-09 	1.31348e-11
0.1255 	2.67553 	-1.371e-09 	1.29055e-11
0.1265 	2.67919 	-1.34807e-09 	1.26798e-11
0.1275 	2.68281 	-1.32549e-09 	1.24577e-11
0.1285 	2.68639 	-1.30327e-09 	1.2239e-11
0.1295 	2.68992 	-1.28139e-09 	1.20239e-11
0.1305 	2.69341 	-1.25984e-09 	1.18121e-11
0.1315 	2.69686 	-1.23863e-09 	1.16037e-11
0.1325 	2.70028 	-1.21775e-09 	1.13986e-11
0.1335 	2.70365 	-1.19719e-09 	1.11967e-11
0.1345 	2.70698 	-1.17695e-09 	1.09981e-11
0.1355 	2.71027 	-1.15702e-09 	1.08026e-11
0.1365 	2.71352 	-1.13741e-09 	1.06103e-11
0.1375 	2.71673 	-1.1181e-09 	1.04211e-11
0.1385 	2.71991 	-1.0991e-09 	1.02349e-11
0.1395 	2.72305 	-1.0804e-09 	1.00517e-11
0.1405 	2.72615 	-1.06199e-09 	9.87149e-12
0.1415 	2.72922 	-1.04388e-09 	9.69421e-12
0.1425 	2.73225 	-1.02605e-09 	9.5198e-12
0.1435 	2.73524 	-1.0085e-09 	9.3482e-12
0.1445 	2.7382 	-9.91233e-10 	9.17936e-12
0.1455 	2.74112 	-9.74231e-10 	9.01324e-12
0.1465 	2.74401 	-9.57493e-10 	8.84976e-12
0.1475 	2.74687 	-9.41015e-10 	8.68889e-12
0.1485 	2.74969 	-9.24795e-10 	8.53062e-12
0.1495 	2.75248 	-9.08833e-10 	8.37492e-12
0.1505 	2.75523 	-8.93122e-10 	8.22174e-12
0.1515 	2.75796 	-8.7766e-10 	8.07105e-12
0.1525 	2.76065 	-8.62447e-10 	7.92285e-12
0.1535 	2.76331 	-8.47478e-10 	7.77709e-12
0.1545 	2.76594 	-8.3275e-10 	7.63373e-12
0.1555 	2.76854 	-8.18258e-10 	7.49273e-12
0.1565 	2.7711 	-8.03999e-10 	7.35404e-12
0.1575 	2.77364 	-7.89965e-10 	7.21763e-12
0.1585 	2.77615 	-7.76155e-10 	7.08344e-12
0.1595 	2.77863 	-7.62563e-10 	6.95144e-12
0.1605 	2.78108 	-7.49187e-10 	6.82158e-12
0.1615 	2.7835 	-7.3602e-10 	6.69382e-12
0.1625 	2.7859 	-7.2306e-10 	6.56813e-12
0.1635 	2.78826 	-7.10306e-10 	6.44449e-12
0.1645 	2.7906 	-6.97753e-10 	6.32286e-12
0.1655 	2.79291 	-6.85399e-10 	6.20321e-12
0.1665 	2.79519 	-6.73241e-10 	6.08554e-12
0.1675 	2.79745 	-6.6128e-10 	5.96981e-12
0.1685 	2.79968 	-6.49514e-10 	5.85602e-12
0.1695 	2.80189 	-6.3794e-10 	5.74416e-12
0.1705 	2.80407 	-6.26559e-10 	5.63418e-12
0.1715 	2.80622 	-6.15362e-10 	5.52605e-12
0.1725 	2.80835 	-6.04349e-10 	5.41974e-12
0.1735 	2.81046 	-5.93513e-10 	5.31519e-12
0.1745 	2.81254 	-5.8285e-10 	5.21236e-12
0.1755 	2.8146 	-5.72351e-10 	5.11117e-12
0.1765 	2.81663 	-5.62014e-10 	5.0116e-12
0.1775 	2.81864 	-5.51837e-10 	4.91362e-12
0.1785 	2.82063 	-5.41815e-10 	4.8172e-12
0.1795 	2.82259 	-5.31952e-10 	4.72237e-12
0.1805 	2.82453 	-5.2225e-10 	4.62913e-12
0.1815 	2.82645 	-5.12709e-10 	4.53749e-12
0.1825 	2.82835 	-5.03332e-10 	4.44745e-12
0.1835 	2.83022 	-4.94115e-10 	4.35899e-12
0.1845 	2.83208 	-4.85055e-10 	4.27208e-12
0.1855 	2.83391 	-4.76147e-10 	4.18667e-12
0.1865 	2.83572 	-4.67384e-10 	4.10268e-12
0.1875 	2.83751 	-4.58756e-10 	4.02004e-12
0.1885 	2.83928 	-4.5026e-10 	3.93873e-12
0.1895 	2.84103 	-4.41891e-10 	3.85869e-12
0.1905 	2.84276 	-4.33648e-10 	3.77991e-12
0.1915 	2.84447 	-4.25531e-10 	3.7024e-12
0.1925 	2.84616 	-4.17547e-10 	3.62619e-12
0.1935 	2.84783 	-4.09694e-10 	3.55129e-12
0.1945 	2.84948 	-4.01978e-10 	3.47771e-12
0.1955 	2.85111 	-3.94397e-10 	3.40546e-12
0.1965 	2.85273 	-3.86949e-10 	3.33451e-12
0.1975 	2.85432 	-3.79629e-10 	3.26483e-12
0.1985 	2.8559 	-3.72433e-10 	3.19634e-12
0.1995 	2.85746 	-3.6535e-10 	3.12898e-12
0.2005 	2.859 	-3.58376e-10 	3.0627e-12
0.2015 	2.86053 	-3.51506e-10 	2.99746e-12
0.2025 	2.86203 	-3.44736e-10 	2.93324e-12
0.2035 	2.86352 	-3.3807e-10 	2.87005e-12
0.2045 	2.865 	-3.31508e-10 	2.80791e-12
0.2055 	2.86645 	-3.25056e-10 	2.74684e-12
0.2065 	2.86789 	-3.18715e-10 	2.68686e-12
0.2075 	2.86932 	-3.12487e-10 	2.62798e-12
0.2085 	2.87072 	-3.06373e-10 	2.57019e-12
0.2095 	2.87212 	-3.00368e-10 	2.51345e-12
0.2105 	2.87349 	-2.94466e-10 	2.45773e-12
0.2115 	2.87485 	-2.8866e-10 	2.40295e-12
0.2125 	2.8762 	-2.82946e-10 	2.34907e-12
0.2135 	2.87753 	-2.77316e-10 	2.29605e-12
0.2145 	2.87884 	-2.71769e-10 	2.24386e-12
0.2155 	2.88014 	-2.66305e-10 	2.1925e-12
0.2165 	2.88143 	-2.60926e-10 	2.14199e-12
0.2175 	2.8827 	-2.55635e-10 	2.09234e-12
0.2185 	2.88395 	-2.50435e-10 	2.04359e-12
0.2195 	2.8852 	-2.45329e-10 	1.99574e-12
0.2205 	2.88642 	-2.40317e-10 	1.94879e-12
0.2215 	2.88764 	-2.35395e-10 	1.90271e-12
0.2225 	2.88884 	-2.30562e-10 	1.85748e-12
0.2235 	2.89002 	-2.25809e-10 	1.81304e-12
0.2245 	2.8912 	-2.21133e-10 	1.76935e-12
0.2255 	2.89236 	-2.16528e-10 	1.72638e-12
0.2265 	2.8935 	-2.11992e-10 	1.6841e-12
0.2275 	2.89464 	-2.07525e-10 	1.64251e-12
0.2285 	2.89576 	-2.03128e-10 	1.60162e-12
0.2295 	2.89687 	-1.98802e-10 	1.56142e-12
0.2305 	2.89797 	-1.9455e-10 	1.52195e-12
0.2315 	2.89905 	-1.90374e-10 	1.48321e-12
0.2325 	2.90013 	-1.86274e-10 	1.4452e-12
0.2335 	2.90119 	-1.82248e-10 	1.40789e-12
0.2345 	2.90224 	-1.78294e-10 	1.37128e-12
0.2355 	2.90327 	-1.74409e-10 	1.33533e-12
0.2365 	2.9043 	-1.70588e-10 	1.30001e-12
0.2375 	2.90531 	-1.6683e-10 	1.26531e-12
0.2385 	2.90632 	-1.63132e-10 	1.23121e-12
0.2395 	2.90731 	-1.59495e-10 	1.1977e-12
0.2405 	2.90829 	-1.55917e-10 	1.16477e-12
0.2415 	2.90926 	-1.52399e-10 	1.13243e-12
0.2425 	2.91022 	-1.48941e-10 	1.10067e-12
0.2435 	2.91116 	-1.45542e-10 	1.06948e-12
0.2445 	2.9121 	-1.422e-10 	1.03886e-12
0.2455 	2.91303 	-1.38916e-10 	1.00879e-12
0.2465 	2.91394 	-1.35687e-10 	9.7926e-13
0.2475 	2.91485 	-1.32512e-10 	9.50258e-13
0.2485 	2.91575 	-1.2939e-10 	9.21774e-13
0.2495 	2.91663 	-1.26321e-10 	8.93804e-13
0.2505 	2.91751 	-1.23304e-10 	8.66347e-13
0.2515 	2.91838 	-1.20341e-10 	8.39404e-13
0.2525 	2.91923 	-1.17432e-10 	8.12972e-13
0.2535 	2.92008 	-1.14576e-10 	7.87048e-13
0.2545 	2.92092 	-1.11772e-10 	7.61625e-13
0.2555 	2.92175 	-1.09021e-10 	7.36689e-13
0.2565 	2.92257 	-1.06318e-10 	7.12223e-13
0.2575 	2.92338 	-1.03662e-10 	6.88211e-13
0.2585 	2.92418 	-1.01052e-10 	6.64637e-13
0.2595 	2.92497 	-9.84843e-11 	6.41487e-13
0.2605 	2.92576 	-9.5958e-11 	6.18747e-13
0.2615 	2.92654 	-9.34724e-11 	5.96414e-13
0.2625 	2.9273 	-9.10275e-11 	5.74483e-13
0.2635 	2.92806 	-8.86227e-11 	5.52948e-13
0.2645 	2.92881 	-8.62579e-11 	5.3181e-13
0.2655 	2.92955 	-8.39339e-11 	5.11069e-13
0.2665 	2.93029 	-8.16511e-11 	4.90725e-13
0.2675 	2.93101 	-7.941e-11 	4.70778e-13
0.2685 	2.93173 	-7.72118e-11 	4.51233e-13
0.2695 	2.93244 	-7.50569e-11 	4.32087e-13
0.2705 	2.93314 	-7.2946e-11 	4.1334e-13
0.2715 	2.93383 	-7.08786e-11 	3.94984e-13
0.2725 	2.93452 	-6.88527e-11 	3.77005e-13
0.2735 	2.9352 	-6.68654e-11 	3.59385e-13
0.2745 	2.93587 	-6.49134e-11 	3.42101e-13
0.2755 	2.93654 	-6.29917e-11 	3.25127e-13
0.2765 	2.9372 	-6.10968e-11 	3.08447e-13
0.2775 	2.93785 	-5.9227e-11 	2.92052e-13
0.2785 	2.93849 	-5.73821e-11 	2.75944e-13
0.2795 	2.93912 	-5.55652e-11 	2.60133e-13
0.2805 	2.93975 	-5.37805e-11 	2.44639e-13
0.2815 	2.94037 	-5.20325e-11 	2.29479e-13
0.2825 	2.94099 	-5.03257e-11 	2.14664e-13
0.2835 	2.9416 	-4.86617e-11 	2.00192e-13
0.2845 	2.9422 	-4.70386e-11 	1.86048e-13
0.2855 	2.94279 	-4.54522e-11 	1.72211e-13
0.2865 	2.94338 	-4.38968e-11 	1.58653e-13
0.2875 	2.94396 	-4.23651e-11 	1.45346e-13
0.2885 	2.94454 	-4.08516e-11 	1.32276e-13
0.2895 	2.94511 	-3.93547e-11 	1.1944e-13
0.2905 	2.94567 	-3.78754e-11 	1.06845e-13
0.2915 	2.94623 	-3.64177e-11 	9.45025e-14
0.2925 	2.94678 	-3.49872e-11 	8.24274e-14
0.2935 	2.94732 	-3.35896e-11 	7.0627e-14
0.2945 	2.94786 	-3.22288e-11 	5.90994e-14
0.2955 	2.94839 	-3.09047e-11 	4.78337e-14
0.2965 	2.94892 	-2.96147e-11 	3.6814e-14
0.2975 	2.94944 	-2.8354e-11 	2.60247e-14
0.2985 	2.94996 	-2.71164e-11 	1.54538e-14
