# Forces     
# CofR       : (0.000000e+00 0.000000e+00 0.000000e+00)
# Time       forces(pressure viscous porous) moment(pressure viscous porous)
1.000000e-03	((1.079424e+00 -1.674023e+00 -9.198523e-05) (5.955318e-03 -7.020033e-05 4.958355e-07) (0.000000e+00 0.000000e+00 0.000000e+00)) ((1.025242e-04 2.782124e-05 -4.501449e-01) (-1.344387e-07 -1.155952e-06 1.155485e-04) (0.000000e+00 0.000000e+00 0.000000e+00))
2.000000e-03	((4.263907e+00 -6.768986e+00 -3.123391e-04) (6.139053e-03 1.023575e-03 1.606886e-06) (0.000000e+00 0.000000e+00 0.000000e+00)) ((-3.080635e-04 -1.838564e-04 -1.718086e+00) (-5.010449e-07 -2.444273e-06 5.406770e-04) (0.000000e+00 0.000000e+00 0.000000e+00))
3.000000e-03	((6.320238e+00 -1.050827e+01 -2.753771e-04) (7.139488e-03 2.068046e-03 -3.113191e-06) (0.000000e+00 0.000000e+00 0.000000e+00)) ((-9.045017e-04 -6.777989e-04 -2.534896e+00) (-3.840680e-06 -3.263071e-07 9.562625e-04) (0.000000e+00 0.000000e+00 0.000000e+00))
4.000000e-03	((6.686744e+00 -1.174282e+01 -2.316099e-04) (8.929685e-03 3.153224e-03 -5.034134e-06) (0.000000e+00 0.000000e+00 0.000000e+00)) ((1.323634e-03 -2.259286e-04 -2.683584e+00) (-2.605342e-06 -2.202739e-06 1.406841e-03) (0.000000e+00 0.000000e+00 0.000000e+00))
5.000000e-03	((6.342300e+00 -1.202273e+01 -1.471373e-03) (1.040748e-02 3.888788e-03 -6.515768e-06) (0.000000e+00 0.000000e+00 0.000000e+00)) ((1.197681e-02 2.550390e-03 -2.565410e+00) (1.705246e-07 7.399050e-07 1.762413e-03) (0.000000e+00 0.000000e+00 0.000000e+00))
6.000000e-03	((6.130783e+00 -1.268852e+01 -1.626287e-03) (1.156774e-02 4.379292e-03 -1.440854e-05) (0.000000e+00 0.000000e+00 0.000000e+00)) ((2.315657e-02 5.664366e-03 -2.533612e+00) (1.105934e-06 5.825043e-06 1.997890e-03) (0.000000e+00 0.000000e+00 0.000000e+00))
7.000000e-03	((6.261169e+00 -1.393070e+01 -1.362796e-03) (1.246572e-02 4.706075e-03 -1.694309e-05) (0.000000e+00 0.000000e+00 0.000000e+00)) ((2.534399e-02 5.761734e-03 -2.664699e+00) (-3.753073e-07 7.356455e-06 2.163694e-03) (0.000000e+00 0.000000e+00 0.000000e+00))
8.000000e-03	((7.060605e+00 -1.624692e+01 -2.436574e-04) (1.322729e-02 4.949651e-03 -1.922624e-05) (0.000000e+00 0.000000e+00 0.000000e+00)) ((2.458826e-02 4.876999e-03 -3.076638e+00) (-3.976245e-08 8.058116e-06 2.286029e-03) (0.000000e+00 0.000000e+00 0.000000e+00))
9.000000e-03	((8.326920e+00 -1.929610e+01 9.379575e-04) (1.391440e-02 5.111955e-03 -1.225466e-05) (0.000000e+00 0.000000e+00 0.000000e+00)) ((2.252767e-02 3.998085e-03 -3.675495e+00) (7.199491e-07 5.000219e-06 2.382761e-03) (0.000000e+00 0.000000e+00 0.000000e+00))
1.000000e-02	((9.734235e+00 -2.253037e+01 1.649127e-03) (1.458110e-02 5.242736e-03 -1.427513e-05) (0.000000e+00 0.000000e+00 0.000000e+00)) ((2.246243e-02 5.513607e-03 -4.322299e+00) (5.017957e-07 3.774985e-06 2.474447e-03) (0.000000e+00 0.000000e+00 0.000000e+00))
1.100000e-02	((1.098176e+01 -2.551358e+01 1.789994e-03) (1.524068e-02 5.331833e-03 -1.694731e-05) (0.000000e+00 0.000000e+00 0.000000e+00)) ((2.377060e-02 7.681147e-03 -4.897129e+00) (-7.277404e-07 6.977681e-06 2.561782e-03) (0.000000e+00 0.000000e+00 0.000000e+00))
1.200000e-02	((1.215219e+01 -2.835279e+01 1.343515e-03) (1.588591e-02 5.411478e-03 -2.160369e-05) (0.000000e+00 0.000000e+00 0.000000e+00)) ((2.835448e-02 1.196278e-02 -5.431954e+00) (-2.332445e-06 8.246667e-06 2.645737e-03) (0.000000e+00 0.000000e+00 0.000000e+00))
1.300000e-02	((1.321790e+01 -3.107840e+01 7.742342e-04) (1.654351e-02 5.484953e-03 -1.929997e-05) (0.000000e+00 0.000000e+00 0.000000e+00)) ((3.851756e-02 1.735346e-02 -5.923887e+00) (1.038390e-07 7.293071e-06 2.735313e-03) (0.000000e+00 0.000000e+00 0.000000e+00))
1.400000e-02	((1.427390e+01 -3.382127e+01 -9.574441e-06) (1.719718e-02 5.594941e-03 -2.557766e-05) (0.000000e+00 0.000000e+00 0.000000e+00)) ((4.030314e-02 1.906255e-02 -6.413410e+00) (-2.820504e-07 7.192871e-06 2.832384e-03) (0.000000e+00 0.000000e+00 0.000000e+00))
1.500000e-02	((1.550443e+01 -3.691942e+01 -5.515554e-04) (1.786094e-02 5.710268e-03 -3.129150e-05) (0.000000e+00 0.000000e+00 0.000000e+00)) ((4.019309e-02 1.873998e-02 -6.977726e+00) (5.517530e-07 9.629478e-06 2.932070e-03) (0.000000e+00 0.000000e+00 0.000000e+00))
1.600000e-02	((1.707341e+01 -4.069928e+01 3.649810e-04) (1.854386e-02 5.836743e-03 -3.808909e-05) (0.000000e+00 0.000000e+00 0.000000e+00)) ((3.101503e-02 1.339149e-02 -7.687274e+00) (4.247260e-07 1.228818e-05 3.034017e-03) (0.000000e+00 0.000000e+00 0.000000e+00))
1.700000e-02	((1.892898e+01 -4.510786e+01 1.431536e-03) (1.927036e-02 5.971258e-03 -4.105720e-05) (0.000000e+00 0.000000e+00 0.000000e+00)) ((2.249257e-02 7.306387e-03 -8.525137e+00) (1.039658e-07 1.517460e-05 3.138478e-03) (0.000000e+00 0.000000e+00 0.000000e+00))
1.800000e-02	((2.102376e+01 -5.012577e+01 2.811450e-03) (2.002898e-02 6.101938e-03 -4.320951e-05) (0.000000e+00 0.000000e+00 0.000000e+00)) ((1.636771e-02 2.682726e-03 -9.475214e+00) (-8.069786e-07 1.584337e-05 3.243475e-03) (0.000000e+00 0.000000e+00 0.000000e+00))
1.900000e-02	((2.317504e+01 -5.545067e+01 2.727246e-03) (2.079376e-02 6.221949e-03 -4.372765e-05) (0.000000e+00 0.000000e+00 0.000000e+00)) ((1.353275e-02 7.354550e-04 -1.046322e+01) (-7.173568e-07 1.661729e-05 3.345796e-03) (0.000000e+00 0.000000e+00 0.000000e+00))
2.000000e-02	((2.526949e+01 -6.082006e+01 2.123218e-03) (2.154577e-02 6.328079e-03 -4.728337e-05) (0.000000e+00 0.000000e+00 0.000000e+00)) ((1.742595e-02 2.049570e-03 -1.144003e+01) (-1.890236e-06 1.762538e-05 3.444705e-03) (0.000000e+00 0.000000e+00 0.000000e+00))
2.100000e-02	((2.724490e+01 -6.611378e+01 9.989341e-04) (2.226198e-02 6.422028e-03 -4.834555e-05) (0.000000e+00 0.000000e+00 0.000000e+00)) ((2.407094e-02 6.432255e-03 -1.237852e+01) (-2.173569e-06 1.825377e-05 3.540145e-03) (0.000000e+00 0.000000e+00 0.000000e+00))
2.200000e-02	((2.908754e+01 -7.124511e+01 -9.732714e-05) (2.293357e-02 6.500063e-03 -5.006371e-05) (0.000000e+00 0.000000e+00 0.000000e+00)) ((3.148131e-02 1.084356e-02 -1.326812e+01) (-2.302632e-06 1.723349e-05 3.630303e-03) (0.000000e+00 0.000000e+00 0.000000e+00))
2.300000e-02	((3.089868e+01 -7.635471e+01 -6.283964e-04) (2.355719e-02 6.562533e-03 -5.043721e-05) (0.000000e+00 0.000000e+00 0.000000e+00)) ((3.922666e-02 1.508798e-02 -1.415037e+01) (-2.111033e-06 1.609049e-05 3.714918e-03) (0.000000e+00 0.000000e+00 0.000000e+00))
2.400000e-02	((3.282332e+01 -8.165600e+01 -9.403704e-04) (2.414289e-02 6.619028e-03 -5.251778e-05) (0.000000e+00 0.000000e+00 0.000000e+00)) ((4.892051e-02 1.986767e-02 -1.508321e+01) (-2.939656e-06 1.502316e-05 3.797253e-03) (0.000000e+00 0.000000e+00 0.000000e+00))
2.500000e-02	((3.500526e+01 -8.748434e+01 -1.128614e-03) (2.471358e-02 6.687444e-03 -5.576334e-05) (0.000000e+00 0.000000e+00 0.000000e+00)) ((5.518797e-02 2.245772e-02 -1.612932e+01) (-2.873220e-06 1.583829e-05 3.883909e-03) (0.000000e+00 0.000000e+00 0.000000e+00))
2.600000e-02	((3.748598e+01 -9.389714e+01 -4.997453e-04) (2.527008e-02 6.755263e-03 -6.024197e-05) (0.000000e+00 0.000000e+00 0.000000e+00)) ((6.245689e-02 2.415838e-02 -1.730348e+01) (-3.058429e-06 1.580298e-05 3.970664e-03) (0.000000e+00 0.000000e+00 0.000000e+00))
2.700000e-02	((4.026275e+01 -1.009440e+02 -5.772561e-04) (2.581775e-02 6.814025e-03 -6.637419e-05) (0.000000e+00 0.000000e+00 0.000000e+00)) ((6.953297e-02 2.628407e-02 -1.860490e+01) (-3.087846e-06 1.760089e-05 4.055589e-03) (0.000000e+00 0.000000e+00 0.000000e+00))
2.800000e-02	((4.325964e+01 -1.084799e+02 1.313006e-04) (2.634750e-02 6.853879e-03 -7.332460e-05) (0.000000e+00 0.000000e+00 0.000000e+00)) ((6.629512e-02 2.312323e-02 -1.999970e+01) (-3.796834e-06 1.870707e-05 4.135113e-03) (0.000000e+00 0.000000e+00 0.000000e+00))
2.900000e-02	((4.633076e+01 -1.162309e+02 1.369811e-03) (2.683793e-02 6.867640e-03 -7.963149e-05) (0.000000e+00 0.000000e+00 0.000000e+00)) ((6.050804e-02 1.961713e-02 -2.142527e+01) (-4.033016e-06 1.955293e-05 4.207084e-03) (0.000000e+00 0.000000e+00 0.000000e+00))
3.000000e-02	((4.942094e+01 -1.240718e+02 2.265496e-03) (2.725514e-02 6.841049e-03 -8.375230e-05) (0.000000e+00 0.000000e+00 0.000000e+00)) ((5.746657e-02 1.854504e-02 -2.285767e+01) (-4.999026e-06 2.043764e-05 4.266690e-03) (0.000000e+00 0.000000e+00 0.000000e+00))
3.100000e-02	((5.251719e+01 -1.319629e+02 1.844728e-03) (2.756712e-02 6.790414e-03 -8.980652e-05) (0.000000e+00 0.000000e+00 0.000000e+00)) ((5.878218e-02 1.990074e-02 -2.428995e+01) (-6.162830e-06 2.185932e-05 4.316635e-03) (0.000000e+00 0.000000e+00 0.000000e+00))
3.200000e-02	((5.566399e+01 -1.399191e+02 7.104853e-04) (2.788772e-02 6.749602e-03 -8.974578e-05) (0.000000e+00 0.000000e+00 0.000000e+00)) ((5.910749e-02 2.298418e-02 -2.573978e+01) (-6.036190e-06 1.996901e-05 4.369974e-03) (0.000000e+00 0.000000e+00 0.000000e+00))
3.300000e-02	((5.889570e+01 -1.480409e+02 -3.310390e-04) (2.820127e-02 6.726083e-03 -9.265765e-05) (0.000000e+00 0.000000e+00 0.000000e+00)) ((5.614130e-02 2.544276e-02 -2.722554e+01) (-6.735615e-06 1.939404e-05 4.426676e-03) (0.000000e+00 0.000000e+00 0.000000e+00))
3.400000e-02	((6.222464e+01 -1.562653e+02 -8.108798e-04) (2.859930e-02 6.745388e-03 -9.700919e-05) (0.000000e+00 0.000000e+00 0.000000e+00)) ((4.866161e-02 2.455428e-02 -2.874623e+01) (-6.315143e-06 2.003637e-05 4.497787e-03) (0.000000e+00 0.000000e+00 0.000000e+00))
3.500000e-02	((6.574764e+01 -1.648465e+02 -6.583891e-04) (2.907847e-02 6.797508e-03 -1.010034e-04) (0.000000e+00 0.000000e+00 0.000000e+00)) ((3.511205e-02 2.139786e-02 -3.034917e+01) (-6.599829e-06 1.888056e-05 4.580661e-03) (0.000000e+00 0.000000e+00 0.000000e+00))
3.600000e-02	((6.939117e+01 -1.736064e+02 7.279914e-04) (2.951790e-02 6.871005e-03 -1.061816e-04) (0.000000e+00 0.000000e+00 0.000000e+00)) ((2.461409e-02 1.706251e-02 -3.199748e+01) (-5.731753e-06 2.027569e-05 4.662303e-03) (0.000000e+00 0.000000e+00 0.000000e+00))
3.700000e-02	((7.316900e+01 -1.826362e+02 2.391861e-03) (3.002335e-02 6.955374e-03 -1.025516e-04) (0.000000e+00 0.000000e+00 0.000000e+00)) ((7.760093e-03 1.166997e-02 -3.370216e+01) (-6.471675e-06 1.626099e-05 4.751783e-03) (0.000000e+00 0.000000e+00 0.000000e+00))
3.800000e-02	((7.711534e+01 -1.919609e+02 3.763520e-03) (3.060367e-02 7.056999e-03 -9.951270e-05) (0.000000e+00 0.000000e+00 0.000000e+00)) ((-4.400313e-03 7.047145e-03 -3.547646e+01) (-6.618775e-06 1.193482e-05 4.849716e-03) (0.000000e+00 0.000000e+00 0.000000e+00))
3.900000e-02	((8.120778e+01 -2.016032e+02 5.390925e-03) (3.124014e-02 7.173225e-03 -9.810975e-05) (0.000000e+00 0.000000e+00 0.000000e+00)) ((-1.437947e-02 2.114034e-03 -3.731564e+01) (-7.016155e-06 9.410087e-06 4.955289e-03) (0.000000e+00 0.000000e+00 0.000000e+00))
4.000000e-02	((8.537981e+01 -2.114221e+02 6.687348e-03) (3.193868e-02 7.305469e-03 -9.457576e-05) (0.000000e+00 0.000000e+00 0.000000e+00)) ((-2.448275e-02 -3.046235e-03 -3.918792e+01) (-6.810929e-06 6.777279e-06 5.068471e-03) (0.000000e+00 0.000000e+00 0.000000e+00))
4.100000e-02	((8.963668e+01 -2.214444e+02 7.129741e-03) (3.268926e-02 7.458158e-03 -9.111184e-05) (0.000000e+00 0.000000e+00 0.000000e+00)) ((-4.752626e-02 -1.332148e-02 -4.110279e+01) (-7.090538e-06 2.986386e-06 5.187373e-03) (0.000000e+00 0.000000e+00 0.000000e+00))
4.200000e-02	((9.400068e+01 -2.316466e+02 8.242732e-03) (3.347482e-02 7.623676e-03 -8.708573e-05) (0.000000e+00 0.000000e+00 0.000000e+00)) ((-5.366307e-02 -1.951064e-02 -4.306496e+01) (-7.288216e-06 -6.622113e-07 5.311965e-03) (0.000000e+00 0.000000e+00 0.000000e+00))
4.300000e-02	((9.837307e+01 -2.417615e+02 9.208455e-03) (3.428099e-02 7.805511e-03 -8.088977e-05) (0.000000e+00 0.000000e+00 0.000000e+00)) ((-6.556486e-02 -3.064507e-02 -4.503192e+01) (-9.138268e-06 -3.590465e-06 5.439172e-03) (0.000000e+00 0.000000e+00 0.000000e+00))
4.400000e-02	((1.027434e+02 -2.517319e+02 9.626323e-03) (3.512604e-02 8.008100e-03 -6.765771e-05) (0.000000e+00 0.000000e+00 0.000000e+00)) ((-4.765428e-02 -2.922570e-02 -4.699308e+01) (-8.486480e-06 -1.003023e-05 5.573234e-03) (0.000000e+00 0.000000e+00 0.000000e+00))
4.500000e-02	((1.071605e+02 -2.615920e+02 1.079671e-02) (3.599842e-02 8.230663e-03 -5.879132e-05) (0.000000e+00 0.000000e+00 0.000000e+00)) ((-3.320065e-02 -3.178947e-02 -4.897068e+01) (-8.696181e-06 -1.557508e-05 5.711222e-03) (0.000000e+00 0.000000e+00 0.000000e+00))
4.600000e-02	((1.116285e+02 -2.713209e+02 1.217897e-02) (3.691158e-02 8.472027e-03 -4.884829e-05) (0.000000e+00 0.000000e+00 0.000000e+00)) ((-1.451552e-02 -2.988593e-02 -5.096187e+01) (-8.309355e-06 -2.189139e-05 5.855636e-03) (0.000000e+00 0.000000e+00 0.000000e+00))
4.700000e-02	((1.160650e+02 -2.807640e+02 1.219701e-02) (3.786628e-02 8.744498e-03 -3.900056e-05) (0.000000e+00 0.000000e+00 0.000000e+00)) ((-2.723266e-02 -4.047687e-02 -5.293201e+01) (-8.568314e-06 -2.717081e-05 6.006938e-03) (0.000000e+00 0.000000e+00 0.000000e+00))
4.800000e-02	((1.205375e+02 -2.901111e+02 1.294053e-02) (3.886699e-02 9.033043e-03 -2.819162e-05) (0.000000e+00 0.000000e+00 0.000000e+00)) ((-2.924341e-02 -4.746836e-02 -5.491044e+01) (-7.542089e-06 -3.273418e-05 6.163991e-03) (0.000000e+00 0.000000e+00 0.000000e+00))
4.900000e-02	((1.250064e+02 -2.993104e+02 1.299160e-02) (3.991115e-02 9.350209e-03 -2.110678e-05) (0.000000e+00 0.000000e+00 0.000000e+00)) ((-3.592132e-02 -5.438156e-02 -5.688447e+01) (-7.826502e-06 -3.834234e-05 6.327884e-03) (0.000000e+00 0.000000e+00 0.000000e+00))
5.000000e-02	((1.293546e+02 -3.080880e+02 1.422226e-02) (4.098929e-02 9.682390e-03 -1.615371e-05) (0.000000e+00 0.000000e+00 0.000000e+00)) ((-4.067002e-02 -6.040949e-02 -5.879476e+01) (-7.169756e-06 -4.246594e-05 6.497356e-03) (0.000000e+00 0.000000e+00 0.000000e+00))
5.100000e-02	((1.335242e+02 -3.163387e+02 1.643925e-02) (4.210694e-02 1.004299e-02 -1.607953e-05) (0.000000e+00 0.000000e+00 0.000000e+00)) ((-4.528413e-02 -6.531186e-02 -6.061822e+01) (-7.201967e-06 -4.565026e-05 6.673484e-03) (0.000000e+00 0.000000e+00 0.000000e+00))
5.200000e-02	((1.374403e+02 -3.238859e+02 1.903301e-02) (4.324524e-02 1.042149e-02 -1.554893e-05) (0.000000e+00 0.000000e+00 0.000000e+00)) ((-5.422046e-02 -6.771932e-02 -6.231556e+01) (-5.448707e-06 -4.970730e-05 6.854593e-03) (0.000000e+00 0.000000e+00 0.000000e+00))
5.300000e-02	((1.411175e+02 -3.307174e+02 2.128660e-02) (4.440256e-02 1.082498e-02 -1.502234e-05) (0.000000e+00 0.000000e+00 0.000000e+00)) ((-6.983960e-02 -6.986558e-02 -6.389272e+01) (-4.501815e-06 -5.425728e-05 7.040648e-03) (0.000000e+00 0.000000e+00 0.000000e+00))
5.400000e-02	((1.445291e+02 -3.367427e+02 2.433294e-02) (4.557488e-02 1.125490e-02 -1.641368e-05) (0.000000e+00 0.000000e+00 0.000000e+00)) ((-7.525453e-02 -6.325238e-02 -6.533212e+01) (-2.089154e-06 -5.926039e-05 7.232991e-03) (0.000000e+00 0.000000e+00 0.000000e+00))
5.500000e-02	((1.476491e+02 -3.418681e+02 2.622940e-02) (4.676694e-02 1.171585e-02 -1.792126e-05) (0.000000e+00 0.000000e+00 0.000000e+00)) ((-8.907421e-02 -5.981044e-02 -6.662254e+01) (-1.403153e-06 -6.278774e-05 7.431845e-03) (0.000000e+00 0.000000e+00 0.000000e+00))
5.600000e-02	((1.504517e+02 -3.460582e+02 2.873874e-02) (4.797839e-02 1.220706e-02 -1.964885e-05) (0.000000e+00 0.000000e+00 0.000000e+00)) ((-9.783557e-02 -5.155800e-02 -6.775123e+01) (1.471553e-06 -6.646669e-05 7.637381e-03) (0.000000e+00 0.000000e+00 0.000000e+00))
5.700000e-02	((1.530316e+02 -3.495126e+02 2.942204e-02) (4.921686e-02 1.273007e-02 -1.840846e-05) (0.000000e+00 0.000000e+00 0.000000e+00)) ((-1.250612e-01 -5.144086e-02 -6.876451e+01) (1.116878e-06 -7.013427e-05 7.850481e-03) (0.000000e+00 0.000000e+00 0.000000e+00))
5.800000e-02	((1.554510e+02 -3.523807e+02 2.972431e-02) (5.048070e-02 1.327974e-02 -1.921714e-05) (0.000000e+00 0.000000e+00 0.000000e+00)) ((-1.621578e-01 -5.799667e-02 -6.969180e+01) (3.403836e-06 -7.264054e-05 8.070694e-03) (0.000000e+00 0.000000e+00 0.000000e+00))
5.900000e-02	((1.577713e+02 -3.548682e+02 3.231099e-02) (5.177299e-02 1.385697e-02 -8.284620e-06) (0.000000e+00 0.000000e+00 0.000000e+00)) ((-1.932841e-01 -6.370884e-02 -7.056806e+01) (2.666974e-06 -7.817288e-05 8.297747e-03) (0.000000e+00 0.000000e+00 0.000000e+00))
6.000000e-02	((1.599859e+02 -3.570626e+02 3.506231e-02) (5.309428e-02 1.445037e-02 7.947502e-07) (0.000000e+00 0.000000e+00 0.000000e+00)) ((-2.193936e-01 -7.070588e-02 -7.139620e+01) (5.584901e-06 -8.481126e-05 8.529264e-03) (0.000000e+00 0.000000e+00 0.000000e+00))
6.100000e-02	((1.621011e+02 -3.590676e+02 3.699250e-02) (5.443171e-02 1.505968e-02 1.210272e-05) (0.000000e+00 0.000000e+00 0.000000e+00)) ((-2.578016e-01 -8.528205e-02 -7.218509e+01) (4.722790e-06 -9.205367e-05 8.763806e-03) (0.000000e+00 0.000000e+00 0.000000e+00))
6.200000e-02	((1.641195e+02 -3.609179e+02 3.875458e-02) (5.577260e-02 1.566973e-02 1.695411e-05) (0.000000e+00 0.000000e+00 0.000000e+00)) ((-2.871589e-01 -9.727797e-02 -7.293861e+01) (8.470067e-06 -9.660864e-05 8.997134e-03) (0.000000e+00 0.000000e+00 0.000000e+00))
6.300000e-02	((1.660225e+02 -3.625817e+02 3.865796e-02) (5.711764e-02 1.628733e-02 2.945460e-05) (0.000000e+00 0.000000e+00 0.000000e+00)) ((-3.159754e-01 -1.097988e-01 -7.364851e+01) (7.076125e-06 -1.054099e-04 9.230781e-03) (0.000000e+00 0.000000e+00 0.000000e+00))
6.400000e-02	((1.678061e+02 -3.640731e+02 3.785521e-02) (5.848780e-02 1.690308e-02 3.441220e-05) (0.000000e+00 0.000000e+00 0.000000e+00)) ((-3.353787e-01 -1.187353e-01 -7.431310e+01) (1.007452e-05 -1.117878e-04 9.464530e-03) (0.000000e+00 0.000000e+00 0.000000e+00))
6.500000e-02	((1.695315e+02 -3.655649e+02 3.722700e-02) (5.987823e-02 1.751848e-02 4.574997e-05) (0.000000e+00 0.000000e+00 0.000000e+00)) ((-3.512555e-01 -1.222289e-01 -7.496294e+01) (1.119923e-05 -1.207612e-04 9.698630e-03) (0.000000e+00 0.000000e+00 0.000000e+00))
6.600000e-02	((1.712172e+02 -3.671808e+02 3.630333e-02) (6.127871e-02 1.812780e-02 5.455009e-05) (0.000000e+00 0.000000e+00 0.000000e+00)) ((-3.597508e-01 -1.218332e-01 -7.561016e+01) (1.791806e-05 -1.294492e-04 9.930661e-03) (0.000000e+00 0.000000e+00 0.000000e+00))
6.700000e-02	((1.728616e+02 -3.689955e+02 3.634167e-02) (6.267681e-02 1.873181e-02 6.339047e-05) (0.000000e+00 0.000000e+00 0.000000e+00)) ((-3.696822e-01 -1.211921e-01 -7.625848e+01) (1.934682e-05 -1.352617e-04 1.016003e-02) (0.000000e+00 0.000000e+00 0.000000e+00))
6.800000e-02	((1.744845e+02 -3.710791e+02 3.689753e-02) (6.409134e-02 1.933614e-02 6.178626e-05) (0.000000e+00 0.000000e+00 0.000000e+00)) ((-3.623154e-01 -1.174834e-01 -7.691780e+01) (2.760119e-05 -1.388866e-04 1.038983e-02) (0.000000e+00 0.000000e+00 0.000000e+00))
6.900000e-02	((1.760725e+02 -3.733328e+02 3.733949e-02) (6.547623e-02 1.991707e-02 7.047333e-05) (0.000000e+00 0.000000e+00 0.000000e+00)) ((-3.652923e-01 -1.196165e-01 -7.757803e+01) (2.639475e-05 -1.438859e-04 1.061262e-02) (0.000000e+00 0.000000e+00 0.000000e+00))
7.000000e-02	((1.776127e+02 -3.756886e+02 3.892221e-02) (6.687780e-02 2.049464e-02 6.980604e-05) (0.000000e+00 0.000000e+00 0.000000e+00)) ((-3.707200e-01 -1.239578e-01 -7.822986e+01) (3.425220e-05 -1.458660e-04 1.083580e-02) (0.000000e+00 0.000000e+00 0.000000e+00))
7.100000e-02	((1.790285e+02 -3.779587e+02 4.050419e-02) (6.827640e-02 2.104700e-02 7.314121e-05) (0.000000e+00 0.000000e+00 0.000000e+00)) ((-3.851718e-01 -1.319329e-01 -7.883857e+01) (3.494800e-05 -1.516976e-04 1.105285e-02) (0.000000e+00 0.000000e+00 0.000000e+00))
7.200000e-02	((1.804249e+02 -3.803605e+02 4.073870e-02) (6.965937e-02 2.158917e-02 8.075804e-05) (0.000000e+00 0.000000e+00 0.000000e+00)) ((-3.847216e-01 -1.380808e-01 -7.945186e+01) (4.020226e-05 -1.576573e-04 1.126563e-02) (0.000000e+00 0.000000e+00 0.000000e+00))
7.300000e-02	((1.819820e+02 -3.833308e+02 3.900506e-02) (7.104337e-02 2.211538e-02 9.033426e-05) (0.000000e+00 0.000000e+00 0.000000e+00)) ((-4.035706e-01 -1.511048e-01 -8.015627e+01) (3.653400e-05 -1.606502e-04 1.147448e-02) (0.000000e+00 0.000000e+00 0.000000e+00))
7.400000e-02	((1.837253e+02 -3.870292e+02 3.928587e-02) (7.243661e-02 2.264295e-02 9.670107e-05) (0.000000e+00 0.000000e+00 0.000000e+00)) ((-4.105805e-01 -1.582003e-01 -8.096918e+01) (4.076507e-05 -1.665748e-04 1.168242e-02) (0.000000e+00 0.000000e+00 0.000000e+00))
7.500000e-02	((1.856756e+02 -3.914960e+02 4.103024e-02) (7.384719e-02 2.315293e-02 1.101508e-04) (0.000000e+00 0.000000e+00 0.000000e+00)) ((-4.085791e-01 -1.598339e-01 -8.189846e+01) (3.989993e-05 -1.721966e-04 1.188742e-02) (0.000000e+00 0.000000e+00 0.000000e+00))
7.600000e-02	((1.877659e+02 -3.965874e+02 4.711750e-02) (7.527196e-02 2.364330e-02 1.220298e-04) (0.000000e+00 0.000000e+00 0.000000e+00)) ((-3.860621e-01 -1.518818e-01 -8.290835e+01) (4.468213e-05 -1.780960e-04 1.208788e-02) (0.000000e+00 0.000000e+00 0.000000e+00))
7.700000e-02	((1.900536e+02 -4.023418e+02 4.855933e-02) (7.672045e-02 2.410113e-02 1.352279e-04) (0.000000e+00 0.000000e+00 0.000000e+00)) ((-3.903456e-01 -1.550620e-01 -8.402236e+01) (4.392880e-05 -1.820488e-04 1.228334e-02) (0.000000e+00 0.000000e+00 0.000000e+00))
7.800000e-02	((1.926098e+02 -4.088294e+02 4.802840e-02) (7.819888e-02 2.454614e-02 1.486687e-04) (0.000000e+00 0.000000e+00 0.000000e+00)) ((-4.042673e-01 -1.656794e-01 -8.526565e+01) (4.419626e-05 -1.843041e-04 1.247639e-02) (0.000000e+00 0.000000e+00 0.000000e+00))
7.900000e-02	((1.953315e+02 -4.157227e+02 5.023468e-02) (7.969860e-02 2.497869e-02 1.691380e-04) (0.000000e+00 0.000000e+00 0.000000e+00)) ((-4.094022e-01 -1.684806e-01 -8.658336e+01) (3.967853e-05 -1.866772e-04 1.266627e-02) (0.000000e+00 0.000000e+00 0.000000e+00))
8.000000e-02	((1.978749e+02 -4.223834e+02 5.518047e-02) (8.122394e-02 2.542506e-02 1.906604e-04) (0.000000e+00 0.000000e+00 0.000000e+00)) ((-3.882687e-01 -1.635109e-01 -8.782119e+01) (3.902592e-05 -1.909735e-04 1.285760e-02) (0.000000e+00 0.000000e+00 0.000000e+00))
8.100000e-02	((2.002570e+02 -4.288296e+02 4.995094e-02) (8.277535e-02 2.589335e-02 2.018145e-04) (0.000000e+00 0.000000e+00 0.000000e+00)) ((-3.935547e-01 -1.803632e-01 -8.898263e+01) (3.609077e-05 -1.928910e-04 1.305419e-02) (0.000000e+00 0.000000e+00 0.000000e+00))
8.200000e-02	((2.023712e+02 -4.348795e+02 4.482356e-02) (8.432869e-02 2.638530e-02 2.075132e-04) (0.000000e+00 0.000000e+00 0.000000e+00)) ((-3.945881e-01 -1.920827e-01 -9.001880e+01) (3.680756e-05 -1.957166e-04 1.325510e-02) (0.000000e+00 0.000000e+00 0.000000e+00))
8.300000e-02	((2.042821e+02 -4.408018e+02 4.152321e-02) (8.590579e-02 2.689514e-02 2.103017e-04) (0.000000e+00 0.000000e+00 0.000000e+00)) ((-3.817250e-01 -1.985136e-01 -9.096351e+01) (3.664971e-05 -1.977757e-04 1.346276e-02) (0.000000e+00 0.000000e+00 0.000000e+00))
8.400000e-02	((2.058814e+02 -4.464612e+02 3.824814e-02) (8.751163e-02 2.742035e-02 2.137670e-04) (0.000000e+00 0.000000e+00 0.000000e+00)) ((-3.661784e-01 -2.023396e-01 -9.177162e+01) (3.764956e-05 -1.975122e-04 1.367903e-02) (0.000000e+00 0.000000e+00 0.000000e+00))
8.500000e-02	((2.069827e+02 -4.516150e+02 3.152753e-02) (8.915060e-02 2.796215e-02 2.169984e-04) (0.000000e+00 0.000000e+00 0.000000e+00)) ((-3.799045e-01 -2.132748e-01 -9.236896e+01) (3.683219e-05 -2.007382e-04 1.390739e-02) (0.000000e+00 0.000000e+00 0.000000e+00))
8.600000e-02	((2.075166e+02 -4.561577e+02 2.588102e-02) (9.078526e-02 2.851451e-02 2.217620e-04) (0.000000e+00 0.000000e+00 0.000000e+00)) ((-3.922805e-01 -2.173492e-01 -9.273232e+01) (3.857730e-05 -2.015991e-04 1.414438e-02) (0.000000e+00 0.000000e+00 0.000000e+00))
8.700000e-02	((2.076059e+02 -4.600951e+02 2.167033e-02) (9.241108e-02 2.909597e-02 2.331564e-04) (0.000000e+00 0.000000e+00 0.000000e+00)) ((-3.721955e-01 -2.037663e-01 -9.290485e+01) (3.607171e-05 -2.059979e-04 1.439351e-02) (0.000000e+00 0.000000e+00 0.000000e+00))
8.800000e-02	((2.074124e+02 -4.635229e+02 2.017887e-02) (9.403637e-02 2.969360e-02 2.476605e-04) (0.000000e+00 0.000000e+00 0.000000e+00)) ((-3.745954e-01 -1.999827e-01 -9.295079e+01) (3.606875e-05 -2.067331e-04 1.465187e-02) (0.000000e+00 0.000000e+00 0.000000e+00))
8.900000e-02	((2.072843e+02 -4.669124e+02 1.632103e-02) (9.567002e-02 3.032574e-02 2.616162e-04) (0.000000e+00 0.000000e+00 0.000000e+00)) ((-3.599635e-01 -1.987389e-01 -9.302172e+01) (3.547377e-05 -2.172288e-04 1.492143e-02) (0.000000e+00 0.000000e+00 0.000000e+00))
9.000000e-02	((2.075327e+02 -4.707600e+02 1.343667e-02) (9.732161e-02 3.099703e-02 2.737526e-04) (0.000000e+00 0.000000e+00 0.000000e+00)) ((-3.585620e-01 -2.032065e-01 -9.325412e+01) (3.699825e-05 -2.234594e-04 1.520318e-02) (0.000000e+00 0.000000e+00 0.000000e+00))
9.100000e-02	((2.082531e+02 -4.752468e+02 9.450372e-03) (9.896984e-02 3.169800e-02 2.736416e-04) (0.000000e+00 0.000000e+00 0.000000e+00)) ((-3.593409e-01 -2.101772e-01 -9.368868e+01) (3.637785e-05 -2.260559e-04 1.549200e-02) (0.000000e+00 0.000000e+00 0.000000e+00))
9.200000e-02	((2.092985e+02 -4.803049e+02 4.823329e-03) (1.005956e-01 3.241597e-02 2.689724e-04) (0.000000e+00 0.000000e+00 0.000000e+00)) ((-3.684998e-01 -2.189579e-01 -9.427595e+01) (3.708419e-05 -2.217334e-04 1.578545e-02) (0.000000e+00 0.000000e+00 0.000000e+00))
9.300000e-02	((2.105512e+02 -4.857428e+02 -1.414813e-03) (1.021916e-01 3.314357e-02 2.653499e-04) (0.000000e+00 0.000000e+00 0.000000e+00)) ((-3.619935e-01 -2.231833e-01 -9.496788e+01) (3.718184e-05 -2.274820e-04 1.608062e-02) (0.000000e+00 0.000000e+00 0.000000e+00))
9.400000e-02	((2.119829e+02 -4.916524e+02 -7.711757e-03) (1.037490e-01 3.383597e-02 2.553828e-04) (0.000000e+00 0.000000e+00 0.000000e+00)) ((-3.516746e-01 -2.230237e-01 -9.576319e+01) (4.220247e-05 -2.255192e-04 1.636604e-02) (0.000000e+00 0.000000e+00 0.000000e+00))
9.500000e-02	((2.136180e+02 -4.979270e+02 -1.486265e-02) (1.052605e-01 3.447594e-02 2.498132e-04) (0.000000e+00 0.000000e+00 0.000000e+00)) ((-3.446181e-01 -2.214322e-01 -9.666305e+01) (4.500579e-05 -2.282838e-04 1.663275e-02) (0.000000e+00 0.000000e+00 0.000000e+00))
9.600000e-02	((2.155272e+02 -5.046655e+02 -1.884615e-02) (1.067284e-01 3.505186e-02 2.532473e-04) (0.000000e+00 0.000000e+00 0.000000e+00)) ((-3.510783e-01 -2.264021e-01 -9.769194e+01) (4.727313e-05 -2.286988e-04 1.687898e-02) (0.000000e+00 0.000000e+00 0.000000e+00))
9.700000e-02	((2.177959e+02 -5.118351e+02 -2.409151e-02) (1.081501e-01 3.556577e-02 2.605948e-04) (0.000000e+00 0.000000e+00 0.000000e+00)) ((-3.404867e-01 -2.297333e-01 -9.887153e+01) (4.626703e-05 -2.333151e-04 1.710254e-02) (0.000000e+00 0.000000e+00 0.000000e+00))
9.800000e-02	((2.203592e+02 -5.193016e+02 -2.701093e-02) (1.095452e-01 3.603236e-02 2.657057e-04) (0.000000e+00 0.000000e+00 0.000000e+00)) ((-3.223042e-01 -2.233040e-01 -1.001665e+02) (4.642814e-05 -2.329409e-04 1.730920e-02) (0.000000e+00 0.000000e+00 0.000000e+00))
9.900000e-02	((2.230924e+02 -5.268970e+02 -3.324920e-02) (1.108938e-01 3.645749e-02 2.670471e-04) (0.000000e+00 0.000000e+00 0.000000e+00)) ((-2.926157e-01 -2.119974e-01 -1.015216e+02) (5.055350e-05 -2.380329e-04 1.750030e-02) (0.000000e+00 0.000000e+00 0.000000e+00))
1.000000e-01	((2.259240e+02 -5.345633e+02 -4.203054e-02) (1.122137e-01 3.685630e-02 2.636377e-04) (0.000000e+00 0.000000e+00 0.000000e+00)) ((-2.743763e-01 -2.080087e-01 -1.029009e+02) (5.195569e-05 -2.398645e-04 1.768163e-02) (0.000000e+00 0.000000e+00 0.000000e+00))
1.010000e-01	((2.287639e+02 -5.421730e+02 -5.063040e-02) (1.135118e-01 3.724696e-02 2.485317e-04) (0.000000e+00 0.000000e+00 0.000000e+00)) ((-2.563342e-01 -1.993916e-01 -1.042701e+02) (5.302625e-05 -2.416678e-04 1.785903e-02) (0.000000e+00 0.000000e+00 0.000000e+00))
1.020000e-01	((2.316245e+02 -5.498422e+02 -5.670664e-02) (1.147928e-01 3.762659e-02 2.220531e-04) (0.000000e+00 0.000000e+00 0.000000e+00)) ((-2.488690e-01 -1.968504e-01 -1.056417e+02) (6.217725e-05 -2.375462e-04 1.803288e-02) (0.000000e+00 0.000000e+00 0.000000e+00))
1.030000e-01	((2.344521e+02 -5.574881e+02 -6.278626e-02) (1.160708e-01 3.799595e-02 1.914671e-04) (0.000000e+00 0.000000e+00 0.000000e+00)) ((-2.443841e-01 -1.959948e-01 -1.069999e+02) (6.659980e-05 -2.326013e-04 1.820125e-02) (0.000000e+00 0.000000e+00 0.000000e+00))
1.040000e-01	((2.371917e+02 -5.650876e+02 -6.863541e-02) (1.173687e-01 3.838781e-02 1.809673e-04) (0.000000e+00 0.000000e+00 0.000000e+00)) ((-2.480743e-01 -1.962594e-01 -1.083251e+02) (6.880317e-05 -2.268393e-04 1.837756e-02) (0.000000e+00 0.000000e+00 0.000000e+00))
1.050000e-01	((2.397368e+02 -5.724758e+02 -7.381870e-02) (1.186681e-01 3.881186e-02 1.681831e-04) (0.000000e+00 0.000000e+00 0.000000e+00)) ((-2.428869e-01 -1.912471e-01 -1.095770e+02) (6.861844e-05 -2.207364e-04 1.856340e-02) (0.000000e+00 0.000000e+00 0.000000e+00))
1.060000e-01	((2.420988e+02 -5.796655e+02 -7.790962e-02) (1.199579e-01 3.923590e-02 1.415376e-04) (0.000000e+00 0.000000e+00 0.000000e+00)) ((-2.368457e-01 -1.785601e-01 -1.107560e+02) (7.177001e-05 -2.087850e-04 1.874972e-02) (0.000000e+00 0.000000e+00 0.000000e+00))
1.070000e-01	((2.442205e+02 -5.865180e+02 -8.170609e-02) (1.212135e-01 3.966317e-02 1.222486e-04) (0.000000e+00 0.000000e+00 0.000000e+00)) ((-2.377774e-01 -1.728687e-01 -1.118357e+02) (7.433943e-05 -2.016929e-04 1.893558e-02) (0.000000e+00 0.000000e+00 0.000000e+00))
1.080000e-01	((2.461447e+02 -5.931138e+02 -8.516511e-02) (1.224626e-01 4.009179e-02 1.178118e-04) (0.000000e+00 0.000000e+00 0.000000e+00)) ((-2.416666e-01 -1.702887e-01 -1.128337e+02) (7.695170e-05 -2.005857e-04 1.912226e-02) (0.000000e+00 0.000000e+00 0.000000e+00))
1.090000e-01	((2.479189e+02 -5.994972e+02 -8.903930e-02) (1.236988e-01 4.053641e-02 1.165321e-04) (0.000000e+00 0.000000e+00 0.000000e+00)) ((-2.353018e-01 -1.703747e-01 -1.137735e+02) (7.997550e-05 -2.012384e-04 1.931375e-02) (0.000000e+00 0.000000e+00 0.000000e+00))
1.100000e-01	((2.496280e+02 -6.058049e+02 -9.387451e-02) (1.249022e-01 4.098157e-02 1.038883e-04) (0.000000e+00 0.000000e+00 0.000000e+00)) ((-2.226461e-01 -1.628278e-01 -1.146920e+02) (8.042544e-05 -1.930491e-04 1.950485e-02) (0.000000e+00 0.000000e+00 0.000000e+00))
1.110000e-01	((2.512889e+02 -6.120533e+02 -9.919610e-02) (1.261162e-01 4.145578e-02 8.121955e-05) (0.000000e+00 0.000000e+00 0.000000e+00)) ((-1.959862e-01 -1.514943e-01 -1.155997e+02) (8.054734e-05 -1.794989e-04 1.970313e-02) (0.000000e+00 0.000000e+00 0.000000e+00))