# Force coefficients
# liftDir    : (0.000000e+00 1.000000e+00 0.000000e+00)
# dragDir    : (1.000000e+00 0.000000e+00 0.000000e+00)
# pitchAxis  : (0.000000e+00 0.000000e+00 1.000000e+00)
# magUInf    : 5.148000e+01
# lRef       : 4.530000e-01
# Aref       : 4.348800e-01
# CofR       : (0.000000e+00 0.000000e+00 0.000000e+00)
# Time       	Cm           	Cd           	Cl           	Cl(f)        	Cl(r)        	Cm	Cd	Cl	Cl(f)	Cl(r)
1.000000e-03	-1.573817e-02	9.374103e-03	-1.115191e-02	-2.131412e-02	1.016221e-02
2.000000e-03	-4.186084e-02	2.450398e-02	-3.169942e-02	-5.771055e-02	2.601113e-02
3.000000e-03	-5.314210e-02	3.044900e-02	-4.194566e-02	-7.411493e-02	3.216927e-02
4.000000e-03	-5.041528e-02	2.811959e-02	-4.153841e-02	-7.118449e-02	2.964608e-02
5.000000e-03	-4.082178e-02	2.181430e-02	-3.566954e-02	-5.865655e-02	2.298701e-02
6.000000e-03	-3.178873e-02	1.586968e-02	-2.969145e-02	-4.663446e-02	1.694301e-02
7.000000e-03	-2.688143e-02	1.227379e-02	-2.636756e-02	-4.006521e-02	1.369765e-02
8.000000e-03	-2.900741e-02	1.278254e-02	-2.814868e-02	-4.308176e-02	1.493307e-02
9.000000e-03	-3.627865e-02	1.620700e-02	-3.390185e-02	-5.322957e-02	1.932772e-02
1.000000e-02	-4.602329e-02	2.102555e-02	-4.176403e-02	-6.690531e-02	2.514128e-02
1.100000e-02	-5.537970e-02	2.560433e-02	-4.959584e-02	-8.017762e-02	3.058178e-02
1.200000e-02	-6.365891e-02	2.961817e-02	-5.684187e-02	-9.207985e-02	3.523798e-02
1.300000e-02	-7.007137e-02	3.257189e-02	-6.279142e-02	-1.014671e-01	3.867566e-02
1.400000e-02	-7.525063e-02	3.483493e-02	-6.783552e-02	-1.091684e-01	4.133287e-02
1.500000e-02	-8.053981e-02	3.713211e-02	-7.298861e-02	-1.170341e-01	4.404550e-02
1.600000e-02	-8.661706e-02	3.981975e-02	-7.876057e-02	-1.259973e-01	4.723678e-02
1.700000e-02	-9.358320e-02	4.285931e-02	-8.524819e-02	-1.362073e-01	5.095910e-02
1.800000e-02	-1.014532e-01	4.623344e-02	-9.249911e-02	-1.477027e-01	5.520363e-02
1.900000e-02	-1.100850e-01	4.984559e-02	-1.004406e-01	-1.603053e-01	5.986471e-02
2.000000e-02	-1.191008e-01	5.355220e-02	-1.087736e-01	-1.734876e-01	6.471398e-02
2.100000e-02	-1.283511e-01	5.729439e-02	-1.173800e-01	-1.870411e-01	6.966107e-02
2.200000e-02	-1.377681e-01	6.110301e-02	-1.261674e-01	-2.008518e-01	7.468434e-02
2.300000e-02	-1.474898e-01	6.506994e-02	-1.352202e-01	-2.150999e-01	7.987973e-02
2.400000e-02	-1.575374e-01	6.924990e-02	-1.445259e-01	-2.298004e-01	8.527451e-02
2.500000e-02	-1.679669e-01	7.363905e-02	-1.541362e-01	-2.450350e-01	9.089879e-02
2.600000e-02	-1.788672e-01	7.826726e-02	-1.641399e-01	-2.609371e-01	9.679722e-02
2.700000e-02	-1.903162e-01	8.312416e-02	-1.746357e-01	-2.776340e-01	1.029983e-01
2.800000e-02	-2.024001e-01	8.825644e-02	-1.857006e-01	-2.952505e-01	1.095498e-01
2.900000e-02	-2.152389e-01	9.371897e-02	-1.974439e-01	-3.139608e-01	1.165170e-01
3.000000e-02	-2.288036e-01	9.951949e-02	-2.098353e-01	-3.337213e-01	1.238860e-01
3.100000e-02	-2.428816e-01	1.055658e-01	-2.226911e-01	-3.542271e-01	1.315360e-01
3.200000e-02	-2.573812e-01	1.118189e-01	-2.359287e-01	-3.753456e-01	1.394169e-01
3.300000e-02	-2.723477e-01	1.182838e-01	-2.495916e-01	-3.971435e-01	1.475519e-01
3.400000e-02	-2.877375e-01	1.249535e-01	-2.636257e-01	-4.195504e-01	1.559247e-01
3.500000e-02	-3.036258e-01	1.318467e-01	-2.780903e-01	-4.426710e-01	1.645806e-01
3.600000e-02	-3.202006e-01	1.390641e-01	-2.931503e-01	-4.667757e-01	1.736254e-01
3.700000e-02	-3.374208e-01	1.465711e-01	-3.087925e-01	-4.918171e-01	1.830245e-01
3.800000e-02	-3.556688e-01	1.545586e-01	-3.253435e-01	-5.183405e-01	1.929971e-01
3.900000e-02	-3.748463e-01	1.629833e-01	-3.426988e-01	-5.461957e-01	2.034969e-01
4.000000e-02	-3.949282e-01	1.718365e-01	-3.608357e-01	-5.753460e-01	2.145103e-01
4.100000e-02	-4.155467e-01	1.809425e-01	-3.794413e-01	-6.052673e-01	2.258260e-01
4.200000e-02	-4.366860e-01	1.902832e-01	-3.985220e-01	-6.359471e-01	2.374250e-01
4.300000e-02	-4.586157e-01	1.999555e-01	-4.183105e-01	-6.677709e-01	2.494604e-01
4.400000e-02	-4.815298e-01	2.100270e-01	-4.389946e-01	-7.010271e-01	2.620325e-01
4.500000e-02	-5.052513e-01	2.204215e-01	-4.604239e-01	-7.354632e-01	2.750393e-01
4.600000e-02	-5.299994e-01	2.312472e-01	-4.827864e-01	-7.713926e-01	2.886062e-01
4.700000e-02	-5.556480e-01	2.424544e-01	-5.059640e-01	-8.086300e-01	3.026660e-01
4.800000e-02	-5.821387e-01	2.540202e-01	-5.299133e-01	-8.470953e-01	3.171820e-01
4.900000e-02	-6.094973e-01	2.659801e-01	-5.546098e-01	-8.868022e-01	3.321924e-01
5.000000e-02	-6.377508e-01	2.783296e-01	-5.801065e-01	-9.278041e-01	3.476976e-01
5.100000e-02	-6.670059e-01	2.911486e-01	-6.064466e-01	-9.702291e-01	3.637826e-01
5.200000e-02	-6.972805e-01	3.044421e-01	-6.336487e-01	-1.014105e+00	3.804561e-01
5.300000e-02	-7.285483e-01	3.182203e-01	-6.616643e-01	-1.059380e+00	3.977162e-01
5.400000e-02	-7.607354e-01	3.324257e-01	-6.904559e-01	-1.105963e+00	4.155074e-01
5.500000e-02	-7.936810e-01	3.469893e-01	-7.198697e-01	-1.153616e+00	4.337462e-01
5.600000e-02	-8.274811e-01	3.619459e-01	-7.500162e-01	-1.202489e+00	4.524730e-01
5.700000e-02	-8.621842e-01	3.773424e-01	-7.808926e-01	-1.252630e+00	4.717378e-01
5.800000e-02	-8.978874e-01	3.932217e-01	-8.125778e-01	-1.304176e+00	4.915985e-01
5.900000e-02	-9.345844e-01	4.095870e-01	-8.450578e-01	-1.357113e+00	5.120556e-01
6.000000e-02	-9.720251e-01	4.263495e-01	-8.781000e-01	-1.411075e+00	5.329751e-01
6.100000e-02	-1.010156e+00	4.435138e-01	-9.116322e-01	-1.465972e+00	5.543397e-01
6.200000e-02	-1.048750e+00	4.610100e-01	-9.454279e-01	-1.521463e+00	5.760356e-01
6.300000e-02	-1.087799e+00	4.788438e-01	-9.794603e-01	-1.577529e+00	5.980687e-01
6.400000e-02	-1.127380e+00	4.970206e-01	-1.013833e+00	-1.634297e+00	6.204635e-01
6.500000e-02	-1.167499e+00	5.154793e-01	-1.048591e+00	-1.691794e+00	6.432034e-01
6.600000e-02	-1.208094e+00	5.341996e-01	-1.083681e+00	-1.749934e+00	6.662529e-01
6.700000e-02	-1.248753e+00	5.530069e-01	-1.118715e+00	-1.808110e+00	6.893952e-01
6.800000e-02	-1.289825e+00	5.720973e-01	-1.153959e+00	-1.866804e+00	7.128450e-01
6.900000e-02	-1.330648e+00	5.912447e-01	-1.188730e+00	-1.925013e+00	7.362831e-01
7.000000e-02	-1.371560e+00	6.106673e-01	-1.223285e+00	-1.983202e+00	7.599169e-01
7.100000e-02	-1.411838e+00	6.300906e-01	-1.256962e+00	-2.040319e+00	7.833576e-01
7.200000e-02	-1.451604e+00	6.495356e-01	-1.289879e+00	-2.096544e+00	8.066649e-01
7.300000e-02	-1.490709e+00	6.688363e-01	-1.321984e+00	-2.151701e+00	8.297175e-01
7.400000e-02	-1.529169e+00	6.879952e-01	-1.353315e+00	-2.205827e+00	8.525118e-01
7.500000e-02	-1.566656e+00	7.068572e-01	-1.383572e+00	-2.258442e+00	8.748700e-01
7.600000e-02	-1.603557e+00	7.254845e-01	-1.413208e+00	-2.310162e+00	8.969531e-01
7.700000e-02	-1.640399e+00	7.439329e-01	-1.442821e+00	-2.361810e+00	9.189888e-01
7.800000e-02	-1.676943e+00	7.620461e-01	-1.472268e+00	-2.413077e+00	9.408087e-01
7.900000e-02	-1.712865e+00	7.797113e-01	-1.501208e+00	-2.463469e+00	9.622614e-01
8.000000e-02	-1.748179e+00	7.969187e-01	-1.529651e+00	-2.513004e+00	9.833538e-01
8.100000e-02	-1.783008e+00	8.136742e-01	-1.557732e+00	-2.561874e+00	1.004143e+00
8.200000e-02	-1.817035e+00	8.297774e-01	-1.585232e+00	-2.609650e+00	1.024419e+00
8.300000e-02	-1.850299e+00	8.451767e-01	-1.612241e+00	-2.656419e+00	1.044178e+00
8.400000e-02	-1.882432e+00	8.596645e-01	-1.638475e+00	-2.701670e+00	1.063195e+00
8.500000e-02	-1.913847e+00	8.734565e-01	-1.664262e+00	-2.745978e+00	1.081716e+00
8.600000e-02	-1.944805e+00	8.866780e-01	-1.689829e+00	-2.789720e+00	1.099891e+00
8.700000e-02	-1.975969e+00	8.996160e-01	-1.715802e+00	-2.833870e+00	1.118068e+00
8.800000e-02	-2.007206e+00	9.123643e-01	-1.741948e+00	-2.878180e+00	1.136232e+00
8.900000e-02	-2.038038e+00	9.247987e-01	-1.767820e+00	-2.921948e+00	1.154128e+00
9.000000e-02	-2.068060e+00	9.368430e-01	-1.792986e+00	-2.964554e+00	1.171567e+00
9.100000e-02	-2.097125e+00	9.484790e-01	-1.817303e+00	-3.005776e+00	1.188473e+00
9.200000e-02	-2.125073e+00	9.597060e-01	-1.840614e+00	-3.045380e+00	1.204766e+00
9.300000e-02	-2.152060e+00	9.705792e-01	-1.863074e+00	-3.083597e+00	1.220523e+00
9.400000e-02	-2.178024e+00	9.810565e-01	-1.884675e+00	-3.120362e+00	1.235687e+00
9.500000e-02	-2.203332e+00	9.912939e-01	-1.905734e+00	-3.156199e+00	1.250466e+00
9.600000e-02	-2.228166e+00	1.001377e+00	-1.926413e+00	-3.191373e+00	1.264960e+00
9.700000e-02	-2.252537e+00	1.011303e+00	-1.946715e+00	-3.225895e+00	1.279180e+00
9.800000e-02	-2.276642e+00	1.021262e+00	-1.966740e+00	-3.260012e+00	1.293272e+00
9.900000e-02	-2.300171e+00	1.031067e+00	-1.986281e+00	-3.293312e+00	1.307031e+00
1.000000e-01	-2.322844e+00	1.040529e+00	-2.005177e+00	-3.325433e+00	1.320256e+00
1.010000e-01	-2.344033e+00	1.049301e+00	-2.022954e+00	-3.355510e+00	1.332556e+00
1.020000e-01	-2.363446e+00	1.057226e+00	-2.039389e+00	-3.383140e+00	1.343751e+00
1.030000e-01	-2.380842e+00	1.064234e+00	-2.054223e+00	-3.407954e+00	1.353731e+00
1.040000e-01	-2.396077e+00	1.070195e+00	-2.067382e+00	-3.429768e+00	1.362386e+00
1.050000e-01	-2.409666e+00	1.075238e+00	-2.079379e+00	-3.449356e+00	1.369977e+00
1.060000e-01	-2.422179e+00	1.079534e+00	-2.090761e+00	-3.467559e+00	1.376799e+00
1.070000e-01	-2.434097e+00	1.083324e+00	-2.101905e+00	-3.485050e+00	1.383145e+00
1.080000e-01	-2.445344e+00	1.086562e+00	-2.112746e+00	-3.501717e+00	1.388971e+00
1.090000e-01	-2.456186e+00	1.089328e+00	-2.123518e+00	-3.517945e+00	1.394427e+00
1.100000e-01	-2.466418e+00	1.091519e+00	-2.134061e+00	-3.533448e+00	1.399387e+00
1.110000e-01	-2.476305e+00	1.093213e+00	-2.144633e+00	-3.548622e+00	1.403989e+00
1.120000e-01	-2.485824e+00	1.094382e+00	-2.155212e+00	-3.563431e+00	1.408218e+00
1.130000e-01	-2.494591e+00	1.094981e+00	-2.165362e+00	-3.577272e+00	1.411910e+00
1.140000e-01	-2.503036e+00	1.095394e+00	-2.175286e+00	-3.590679e+00	1.415393e+00
1.150000e-01	-2.511702e+00	1.095956e+00	-2.185362e+00	-3.604383e+00	1.419021e+00
1.160000e-01	-2.520715e+00	1.096839e+00	-2.195595e+00	-3.618512e+00	1.422917e+00
1.170000e-01	-2.530915e+00	1.098445e+00	-2.206684e+00	-3.634258e+00	1.427573e+00
1.180000e-01	-2.542072e+00	1.100739e+00	-2.218393e+00	-3.651268e+00	1.432875e+00
1.190000e-01	-2.554168e+00	1.103780e+00	-2.230644e+00	-3.669490e+00	1.438846e+00
1.200000e-01	-2.567050e+00	1.107485e+00	-2.243299e+00	-3.688699e+00	1.445400e+00
1.210000e-01	-2.580745e+00	1.111903e+00	-2.256342e+00	-3.708916e+00	1.452574e+00
1.220000e-01	-2.594892e+00	1.116825e+00	-2.269528e+00	-3.729656e+00	1.460127e+00
1.230000e-01	-2.609407e+00	1.122138e+00	-2.282856e+00	-3.750835e+00	1.467979e+00
1.240000e-01	-2.624112e+00	1.127700e+00	-2.296220e+00	-3.772222e+00	1.476002e+00
1.250000e-01	-2.638821e+00	1.133413e+00	-2.309492e+00	-3.793567e+00	1.484075e+00
1.260000e-01	-2.652968e+00	1.139062e+00	-2.322179e+00	-3.814057e+00	1.491878e+00
1.270000e-01	-2.666573e+00	1.144692e+00	-2.334235e+00	-3.833691e+00	1.499456e+00
1.280000e-01	-2.679280e+00	1.150159e+00	-2.345339e+00	-3.851950e+00	1.506611e+00
1.290000e-01	-2.691048e+00	1.155390e+00	-2.355495e+00	-3.868795e+00	1.513300e+00
1.300000e-01	-2.702108e+00	1.160369e+00	-2.364965e+00	-3.884591e+00	1.519625e+00
1.310000e-01	-2.712720e+00	1.165078e+00	-2.374077e+00	-3.899759e+00	1.525681e+00
1.320000e-01	-2.723717e+00	1.169705e+00	-2.383667e+00	-3.915550e+00	1.531883e+00
1.330000e-01	-2.734841e+00	1.173950e+00	-2.393678e+00	-3.931680e+00	1.538002e+00
1.340000e-01	-2.745855e+00	1.177696e+00	-2.403925e+00	-3.947818e+00	1.543892e+00
1.350000e-01	-2.756931e+00	1.181026e+00	-2.414556e+00	-3.964209e+00	1.549653e+00
1.360000e-01	-2.767827e+00	1.183983e+00	-2.425234e+00	-3.980444e+00	1.555210e+00
1.370000e-01	-2.778503e+00	1.186652e+00	-2.435868e+00	-3.996437e+00	1.560569e+00
1.380000e-01	-2.788683e+00	1.188973e+00	-2.446187e+00	-4.011776e+00	1.565589e+00
1.390000e-01	-2.798951e+00	1.191264e+00	-2.456655e+00	-4.027278e+00	1.570623e+00
1.400000e-01	-2.809448e+00	1.193715e+00	-2.467309e+00	-4.043103e+00	1.575794e+00
1.410000e-01	-2.820721e+00	1.196587e+00	-2.478607e+00	-4.060025e+00	1.581418e+00
1.420000e-01	-2.832757e+00	1.199911e+00	-2.490506e+00	-4.078010e+00	1.587504e+00
1.430000e-01	-2.845639e+00	1.203774e+00	-2.503034e+00	-4.097156e+00	1.594122e+00
1.440000e-01	-2.859455e+00	1.208238e+00	-2.516224e+00	-4.117566e+00	1.601343e+00
1.450000e-01	-2.873726e+00	1.213086e+00	-2.529658e+00	-4.138555e+00	1.608897e+00
1.460000e-01	-2.888417e+00	1.218369e+00	-2.543243e+00	-4.160038e+00	1.616795e+00
1.470000e-01	-2.903431e+00	1.223987e+00	-2.556930e+00	-4.181896e+00	1.624966e+00
1.480000e-01	-2.918244e+00	1.229620e+00	-2.570323e+00	-4.203405e+00	1.633082e+00
1.490000e-01	-2.933066e+00	1.235433e+00	-2.583539e+00	-4.224835e+00	1.641296e+00
1.500000e-01	-2.948338e+00	1.241643e+00	-2.596936e+00	-4.246806e+00	1.649870e+00
1.510000e-01	-2.964084e+00	1.248234e+00	-2.610558e+00	-4.269364e+00	1.658805e+00
1.520000e-01	-2.980078e+00	1.255092e+00	-2.624222e+00	-4.292189e+00	1.667967e+00
1.530000e-01	-2.996011e+00	1.261954e+00	-2.637787e+00	-4.314905e+00	1.677118e+00
1.540000e-01	-3.011529e+00	1.268554e+00	-2.651042e+00	-4.337050e+00	1.686008e+00
1.550000e-01	-3.026421e+00	1.274774e+00	-2.663854e+00	-4.358348e+00	1.694494e+00
1.560000e-01	-3.040584e+00	1.280498e+00	-2.676190e+00	-4.378679e+00	1.702489e+00
1.570000e-01	-3.053785e+00	1.285693e+00	-2.687782e+00	-4.397676e+00	1.709894e+00
1.580000e-01	-3.065866e+00	1.290373e+00	-2.698433e+00	-4.415083e+00	1.716650e+00
1.590000e-01	-3.076742e+00	1.294455e+00	-2.708104e+00	-4.430793e+00	1.722690e+00
1.600000e-01	-3.086500e+00	1.298033e+00	-2.716809e+00	-4.444904e+00	1.728096e+00
1.610000e-01	-3.095094e+00	1.301193e+00	-2.724446e+00	-4.457317e+00	1.732871e+00
1.620000e-01	-3.102806e+00	1.304090e+00	-2.731227e+00	-4.468420e+00	1.737193e+00
1.630000e-01	-3.110134e+00	1.307030e+00	-2.737501e+00	-4.478885e+00	1.741384e+00
1.640000e-01	-3.117601e+00	1.310445e+00	-2.743558e+00	-4.489380e+00	1.745822e+00
1.650000e-01	-3.125061e+00	1.314180e+00	-2.749366e+00	-4.499744e+00	1.750378e+00
1.660000e-01	-3.132244e+00	1.317982e+00	-2.754814e+00	-4.509651e+00	1.754837e+00
1.670000e-01	-3.138729e+00	1.321578e+00	-2.759642e+00	-4.518550e+00	1.758908e+00
1.680000e-01	-3.144310e+00	1.324640e+00	-2.763854e+00	-4.526237e+00	1.762383e+00
1.690000e-01	-3.148762e+00	1.327024e+00	-2.767283e+00	-4.532404e+00	1.765121e+00
1.700000e-01	-3.152124e+00	1.328796e+00	-2.769914e+00	-4.537081e+00	1.767167e+00
1.710000e-01	-3.154828e+00	1.330170e+00	-2.772086e+00	-4.540871e+00	1.768785e+00
1.720000e-01	-3.157328e+00	1.331383e+00	-2.774114e+00	-4.544385e+00	1.770271e+00
1.730000e-01	-3.159868e+00	1.332638e+00	-2.776148e+00	-4.547942e+00	1.771794e+00
1.740000e-01	-3.162854e+00	1.334010e+00	-2.778627e+00	-4.552168e+00	1.773540e+00
1.750000e-01	-3.166294e+00	1.335476e+00	-2.781602e+00	-4.557094e+00	1.775493e+00
1.760000e-01	-3.170472e+00	1.337170e+00	-2.785306e+00	-4.563125e+00	1.777819e+00
1.770000e-01	-3.175504e+00	1.339152e+00	-2.789859e+00	-4.570434e+00	1.780575e+00
1.780000e-01	-3.181382e+00	1.341381e+00	-2.795259e+00	-4.579012e+00	1.783753e+00
1.790000e-01	-3.188377e+00	1.344129e+00	-2.801641e+00	-4.589198e+00	1.787557e+00
1.800000e-01	-3.196498e+00	1.347276e+00	-2.809088e+00	-4.601042e+00	1.791954e+00
1.810000e-01	-3.205217e+00	1.350523e+00	-2.817204e+00	-4.613819e+00	1.796615e+00
1.820000e-01	-3.214663e+00	1.353956e+00	-2.826065e+00	-4.627695e+00	1.801631e+00
1.830000e-01	-3.224315e+00	1.357243e+00	-2.835310e+00	-4.641969e+00	1.806660e+00
1.840000e-01	-3.234300e+00	1.360449e+00	-2.844984e+00	-4.656792e+00	1.811808e+00
1.850000e-01	-3.244463e+00	1.363683e+00	-2.854820e+00	-4.671874e+00	1.817053e+00
1.860000e-01	-3.255051e+00	1.367079e+00	-2.864989e+00	-4.687545e+00	1.822557e+00
1.870000e-01	-3.266250e+00	1.370893e+00	-2.875498e+00	-4.703999e+00	1.828500e+00
1.880000e-01	-3.278413e+00	1.375399e+00	-2.886541e+00	-4.721684e+00	1.835142e+00
1.890000e-01	-3.291730e+00	1.380705e+00	-2.898299e+00	-4.740880e+00	1.842581e+00
1.900000e-01	-3.306506e+00	1.386935e+00	-2.911012e+00	-4.762012e+00	1.851000e+00
1.910000e-01	-3.322304e+00	1.393952e+00	-2.924292e+00	-4.784450e+00	1.860158e+00
1.920000e-01	-3.338847e+00	1.401496e+00	-2.938004e+00	-4.807849e+00	1.869845e+00
1.930000e-01	-3.355609e+00	1.409311e+00	-2.951746e+00	-4.831482e+00	1.879736e+00
1.940000e-01	-3.372355e+00	1.417211e+00	-2.965396e+00	-4.855053e+00	1.889657e+00
1.950000e-01	-3.388914e+00	1.425083e+00	-2.978880e+00	-4.878354e+00	1.899474e+00
1.960000e-01	-3.405331e+00	1.432842e+00	-2.992303e+00	-4.901483e+00	1.909180e+00
1.970000e-01	-3.421434e+00	1.440451e+00	-3.005531e+00	-4.924199e+00	1.918668e+00
1.980000e-01	-3.437498e+00	1.447959e+00	-3.018841e+00	-4.946919e+00	1.928078e+00
1.990000e-01	-3.452948e+00	1.455083e+00	-3.031783e+00	-4.968839e+00	1.937057e+00
2.000000e-01	-3.467608e+00	1.461696e+00	-3.044207e+00	-4.989712e+00	1.945505e+00
2.010000e-01	-3.481653e+00	1.467988e+00	-3.056170e+00	-5.009739e+00	1.953568e+00
2.020000e-01	-3.495774e+00	1.474312e+00	-3.068156e+00	-5.029852e+00	1.961696e+00
2.030000e-01	-3.510393e+00	1.481002e+00	-3.080420e+00	-5.050603e+00	1.970183e+00
2.040000e-01	-3.525783e+00	1.488056e+00	-3.093267e+00	-5.072417e+00	1.979150e+00
2.050000e-01	-3.541709e+00	1.495347e+00	-3.106572e+00	-5.094995e+00	1.988423e+00
2.060000e-01	-3.558241e+00	1.502840e+00	-3.120439e+00	-5.118461e+00	1.998022e+00
2.070000e-01	-3.575232e+00	1.510437e+00	-3.134824e+00	-5.142644e+00	2.007820e+00
2.080000e-01	-3.592518e+00	1.517922e+00	-3.149660e+00	-5.167348e+00	2.017688e+00
2.090000e-01	-3.609552e+00	1.525128e+00	-3.164486e+00	-5.191796e+00	2.027309e+00
2.100000e-01	-3.626124e+00	1.531838e+00	-3.179187e+00	-5.215717e+00	2.036530e+00
2.110000e-01	-3.641629e+00	1.537832e+00	-3.193246e+00	-5.238252e+00	2.045006e+00
2.120000e-01	-3.655961e+00	1.543087e+00	-3.206518e+00	-5.259220e+00	2.052702e+00
2.130000e-01	-3.668867e+00	1.547585e+00	-3.218750e+00	-5.278242e+00	2.059492e+00
2.140000e-01	-3.680299e+00	1.551297e+00	-3.229855e+00	-5.295227e+00	2.065371e+00
2.150000e-01	-3.690126e+00	1.554321e+00	-3.239630e+00	-5.309941e+00	2.070311e+00
2.160000e-01	-3.698608e+00	1.556691e+00	-3.248322e+00	-5.322769e+00	2.074447e+00
2.170000e-01	-3.705728e+00	1.558471e+00	-3.255874e+00	-5.333665e+00	2.077791e+00
2.180000e-01	-3.711780e+00	1.559797e+00	-3.262507e+00	-5.343033e+00	2.080526e+00
2.190000e-01	-3.717358e+00	1.561051e+00	-3.268633e+00	-5.351674e+00	2.083041e+00
2.200000e-01	-3.723068e+00	1.562518e+00	-3.274698e+00	-5.360417e+00	2.085719e+00
2.210000e-01	-3.729308e+00	1.564512e+00	-3.280950e+00	-5.369783e+00	2.088833e+00
2.220000e-01	-3.736574e+00	1.567104e+00	-3.287911e+00	-5.380530e+00	2.092619e+00
2.230000e-01	-3.744802e+00	1.570248e+00	-3.295555e+00	-5.392579e+00	2.097025e+00
2.240000e-01	-3.753830e+00	1.573713e+00	-3.303856e+00	-5.405758e+00	2.101903e+00
2.250000e-01	-3.763211e+00	1.577273e+00	-3.312476e+00	-5.419449e+00	2.106973e+00
2.260000e-01	-3.773085e+00	1.580948e+00	-3.321530e+00	-5.433850e+00	2.112320e+00
2.270000e-01	-3.783341e+00	1.584789e+00	-3.330878e+00	-5.448780e+00	2.117902e+00
2.280000e-01	-3.794075e+00	1.588703e+00	-3.340706e+00	-5.464428e+00	2.123722e+00
2.290000e-01	-3.805233e+00	1.592734e+00	-3.350939e+00	-5.480703e+00	2.129764e+00
2.300000e-01	-3.817193e+00	1.597051e+00	-3.361893e+00	-5.498140e+00	2.136247e+00
2.310000e-01	-3.830169e+00	1.601816e+00	-3.373695e+00	-5.517016e+00	2.143321e+00
2.320000e-01	-3.844406e+00	1.607102e+00	-3.386547e+00	-5.537680e+00	2.151133e+00
2.330000e-01	-3.859830e+00	1.612998e+00	-3.400317e+00	-5.559988e+00	2.159672e+00
2.340000e-01	-3.876443e+00	1.619385e+00	-3.415094e+00	-5.583990e+00	2.168896e+00
2.350000e-01	-3.893864e+00	1.626120e+00	-3.430555e+00	-5.609142e+00	2.178586e+00
2.360000e-01	-3.912032e+00	1.633131e+00	-3.446679e+00	-5.635372e+00	2.188693e+00
2.370000e-01	-3.930892e+00	1.640423e+00	-3.463392e+00	-5.662589e+00	2.199196e+00
2.380000e-01	-3.950467e+00	1.648003e+00	-3.480693e+00	-5.690814e+00	2.210121e+00
2.390000e-01	-3.970369e+00	1.655779e+00	-3.498213e+00	-5.719476e+00	2.221263e+00
2.400000e-01	-3.990516e+00	1.663609e+00	-3.515965e+00	-5.748498e+00	2.232533e+00
2.410000e-01	-4.010435e+00	1.671314e+00	-3.533542e+00	-5.777207e+00	2.243664e+00
2.420000e-01	-4.030035e+00	1.678851e+00	-3.550870e+00	-5.805470e+00	2.254600e+00
2.430000e-01	-4.049136e+00	1.686151e+00	-3.567789e+00	-5.833030e+00	2.265241e+00
2.440000e-01	-4.067729e+00	1.693216e+00	-3.584271e+00	-5.859865e+00	2.275593e+00
2.450000e-01	-4.085593e+00	1.700052e+00	-3.600052e+00	-5.885619e+00	2.285567e+00
2.460000e-01	-4.102620e+00	1.706537e+00	-3.615116e+00	-5.910178e+00	2.295062e+00
2.470000e-01	-4.118546e+00	1.712562e+00	-3.629223e+00	-5.933158e+00	2.303935e+00
2.480000e-01	-4.133347e+00	1.718120e+00	-3.642362e+00	-5.954528e+00	2.312166e+00
2.490000e-01	-4.146772e+00	1.723062e+00	-3.654353e+00	-5.973949e+00	2.319596e+00
2.500000e-01	-4.158810e+00	1.727392e+00	-3.665193e+00	-5.991406e+00	2.326213e+00
2.510000e-01	-4.169218e+00	1.731033e+00	-3.674654e+00	-6.006545e+00	2.331891e+00
2.520000e-01	-4.178120e+00	1.733997e+00	-3.682885e+00	-6.019563e+00	2.336678e+00
2.530000e-01	-4.185570e+00	1.736347e+00	-3.689884e+00	-6.030512e+00	2.340628e+00
2.540000e-01	-4.191815e+00	1.738205e+00	-3.695870e+00	-6.039750e+00	2.343880e+00
2.550000e-01	-4.196836e+00	1.739511e+00	-3.700868e+00	-6.047270e+00	2.346402e+00
2.560000e-01	-4.200622e+00	1.740240e+00	-3.704893e+00	-6.053069e+00	2.348176e+00
2.570000e-01	-4.203068e+00	1.740385e+00	-3.707832e+00	-6.056984e+00	2.349152e+00
2.580000e-01	-4.204515e+00	1.740077e+00	-3.709992e+00	-6.059511e+00	2.349518e+00
2.590000e-01	-4.205221e+00	1.739437e+00	-3.711560e+00	-6.061001e+00	2.349441e+00
2.600000e-01	-4.205525e+00	1.738678e+00	-3.712767e+00	-6.061909e+00	2.349141e+00
2.610000e-01	-4.205545e+00	1.737797e+00	-3.713752e+00	-6.062421e+00	2.348669e+00
2.620000e-01	-4.205383e+00	1.736852e+00	-3.714587e+00	-6.062677e+00	2.348090e+00
2.630000e-01	-4.205163e+00	1.735885e+00	-3.715366e+00	-6.062847e+00	2.347480e+00
2.640000e-01	-4.205150e+00	1.735025e+00	-3.716307e+00	-6.063303e+00	2.346997e+00
2.650000e-01	-4.205803e+00	1.734485e+00	-3.717745e+00	-6.064675e+00	2.346930e+00
2.660000e-01	-4.207505e+00	1.734522e+00	-3.719940e+00	-6.067475e+00	2.347535e+00
2.670000e-01	-4.210323e+00	1.735053e+00	-3.723021e+00	-6.071834e+00	2.348813e+00
2.680000e-01	-4.214199e+00	1.736069e+00	-3.726924e+00	-6.077661e+00	2.350737e+00
2.690000e-01	-4.219159e+00	1.737580e+00	-3.731677e+00	-6.084998e+00	2.353320e+00
2.700000e-01	-4.225367e+00	1.739689e+00	-3.737406e+00	-6.094070e+00	2.356664e+00
2.710000e-01	-4.232759e+00	1.742291e+00	-3.744095e+00	-6.104806e+00	2.360712e+00
2.720000e-01	-4.241060e+00	1.745322e+00	-3.751491e+00	-6.116805e+00	2.365315e+00
2.730000e-01	-4.250301e+00	1.748715e+00	-3.759679e+00	-6.130141e+00	2.370462e+00
2.740000e-01	-4.260359e+00	1.752470e+00	-3.768519e+00	-6.144618e+00	2.376099e+00
2.750000e-01	-4.271074e+00	1.756492e+00	-3.777894e+00	-6.160021e+00	2.382127e+00
2.760000e-01	-4.282271e+00	1.760725e+00	-3.787654e+00	-6.176098e+00	2.388445e+00
2.770000e-01	-4.293882e+00	1.765116e+00	-3.797749e+00	-6.192757e+00	2.395007e+00
2.780000e-01	-4.305642e+00	1.769647e+00	-3.807916e+00	-6.209600e+00	2.401684e+00
2.790000e-01	-4.317525e+00	1.774188e+00	-3.818211e+00	-6.226630e+00	2.408419e+00
2.800000e-01	-4.329254e+00	1.778698e+00	-3.828349e+00	-6.243428e+00	2.415079e+00
2.810000e-01	-4.340758e+00	1.783132e+00	-3.838279e+00	-6.259897e+00	2.421618e+00
2.820000e-01	-4.351866e+00	1.787440e+00	-3.847848e+00	-6.275790e+00	2.427942e+00
2.830000e-01	-4.362509e+00	1.791535e+00	-3.857029e+00	-6.291023e+00	2.433994e+00
2.840000e-01	-4.372413e+00	1.795401e+00	-3.865535e+00	-6.305181e+00	2.439646e+00
2.850000e-01	-4.381642e+00	1.798957e+00	-3.873485e+00	-6.318384e+00	2.444899e+00
2.860000e-01	-4.390037e+00	1.802236e+00	-3.880681e+00	-6.330378e+00	2.449696e+00
2.870000e-01	-4.397613e+00	1.805181e+00	-3.887184e+00	-6.341206e+00	2.454021e+00
2.880000e-01	-4.404182e+00	1.807719e+00	-3.892842e+00	-6.350603e+00	2.457761e+00
2.890000e-01	-4.409769e+00	1.809783e+00	-3.897728e+00	-6.358634e+00	2.460905e+00
2.900000e-01	-4.414198e+00	1.811407e+00	-3.901639e+00	-6.365018e+00	2.463379e+00
2.910000e-01	-4.417658e+00	1.812543e+00	-3.904817e+00	-6.370066e+00	2.465249e+00
2.920000e-01	-4.419991e+00	1.813207e+00	-3.907067e+00	-6.373524e+00	2.466457e+00
2.930000e-01	-4.421333e+00	1.813415e+00	-3.908536e+00	-6.375601e+00	2.467065e+00
2.940000e-01	-4.421685e+00	1.813193e+00	-3.909221e+00	-6.376295e+00	2.467074e+00
2.950000e-01	-4.421245e+00	1.812549e+00	-3.909320e+00	-6.375905e+00	2.466585e+00
2.960000e-01	-4.419983e+00	1.811594e+00	-3.908728e+00	-6.374347e+00	2.465619e+00
2.970000e-01	-4.418267e+00	1.810371e+00	-3.907818e+00	-6.372176e+00	2.464358e+00
2.980000e-01	-4.416147e+00	1.809017e+00	-3.906549e+00	-6.369422e+00	2.462873e+00
2.990000e-01	-4.413930e+00	1.807592e+00	-3.905223e+00	-6.366541e+00	2.461318e+00
3.000000e-01	-4.411667e+00	1.806170e+00	-3.903840e+00	-6.363587e+00	2.459747e+00
3.010000e-01	-4.409558e+00	1.804737e+00	-3.902628e+00	-6.360872e+00	2.458244e+00
3.020000e-01	-4.407577e+00	1.803427e+00	-3.901479e+00	-6.358316e+00	2.456837e+00
3.030000e-01	-4.406108e+00	1.802271e+00	-3.900791e+00	-6.356504e+00	2.455713e+00
3.040000e-01	-4.405038e+00	1.801345e+00	-3.900375e+00	-6.355225e+00	2.454851e+00
3.050000e-01	-4.404597e+00	1.800673e+00	-3.900470e+00	-6.354832e+00	2.454362e+00
3.060000e-01	-4.404775e+00	1.800336e+00	-3.901016e+00	-6.355283e+00	2.454267e+00
3.070000e-01	-4.405827e+00	1.800342e+00	-3.902280e+00	-6.356967e+00	2.454687e+00
3.080000e-01	-4.407612e+00	1.800773e+00	-3.904054e+00	-6.359639e+00	2.455585e+00
3.090000e-01	-4.410355e+00	1.801580e+00	-3.906624e+00	-6.363667e+00	2.457043e+00
3.100000e-01	-4.413748e+00	1.802744e+00	-3.909665e+00	-6.368580e+00	2.458915e+00
3.110000e-01	-4.417855e+00	1.804190e+00	-3.913312e+00	-6.374511e+00	2.461199e+00
3.120000e-01	-4.422420e+00	1.805878e+00	-3.917304e+00	-6.381072e+00	2.463768e+00
3.130000e-01	-4.427613e+00	1.807823e+00	-3.921812e+00	-6.388519e+00	2.466708e+00
3.140000e-01	-4.433231e+00	1.810086e+00	-3.926567e+00	-6.396515e+00	2.469948e+00
3.150000e-01	-4.439459e+00	1.812602e+00	-3.931823e+00	-6.405370e+00	2.473548e+00
3.160000e-01	-4.445901e+00	1.815285e+00	-3.937194e+00	-6.414498e+00	2.477304e+00
3.170000e-01	-4.452555e+00	1.818054e+00	-3.942749e+00	-6.423929e+00	2.481180e+00
3.180000e-01	-4.459118e+00	1.820856e+00	-3.948192e+00	-6.433214e+00	2.485023e+00
3.190000e-01	-4.465746e+00	1.823654e+00	-3.953706e+00	-6.442599e+00	2.488893e+00
3.200000e-01	-4.472166e+00	1.826463e+00	-3.958977e+00	-6.451655e+00	2.492677e+00
3.210000e-01	-4.478515e+00	1.829200e+00	-3.964215e+00	-6.460622e+00	2.496407e+00
3.220000e-01	-4.484456e+00	1.831836e+00	-3.969070e+00	-6.468991e+00	2.499921e+00
3.230000e-01	-4.490057e+00	1.834287e+00	-3.973673e+00	-6.476894e+00	2.503221e+00
3.240000e-01	-4.495059e+00	1.836524e+00	-3.977754e+00	-6.483936e+00	2.506182e+00
3.250000e-01	-4.499596e+00	1.838494e+00	-3.981490e+00	-6.490341e+00	2.508851e+00
3.260000e-01	-4.503408e+00	1.840220e+00	-3.984589e+00	-6.495702e+00	2.511114e+00
3.270000e-01	-4.506707e+00	1.841631e+00	-3.987335e+00	-6.500375e+00	2.513040e+00
3.280000e-01	-4.509253e+00	1.842754e+00	-3.989436e+00	-6.503971e+00	2.514535e+00
3.290000e-01	-4.511270e+00	1.843584e+00	-3.991146e+00	-6.506843e+00	2.515697e+00
3.300000e-01	-4.512607e+00	1.844151e+00	-3.992282e+00	-6.508748e+00	2.516466e+00
3.310000e-01	-4.513435e+00	1.844397e+00	-3.993075e+00	-6.509972e+00	2.516897e+00
3.320000e-01	-4.513579e+00	1.844390e+00	-3.993288e+00	-6.510224e+00	2.516935e+00
3.330000e-01	-4.513264e+00	1.844069e+00	-3.993206e+00	-6.509868e+00	2.516661e+00
3.340000e-01	-4.512344e+00	1.843501e+00	-3.992624e+00	-6.508656e+00	2.516032e+00
3.350000e-01	-4.511099e+00	1.842708e+00	-3.991839e+00	-6.507018e+00	2.515179e+00
3.360000e-01	-4.509487e+00	1.841796e+00	-3.990734e+00	-6.504854e+00	2.514120e+00
3.370000e-01	-4.507778e+00	1.840772e+00	-3.989596e+00	-6.502576e+00	2.512980e+00
3.380000e-01	-4.505898e+00	1.839757e+00	-3.988272e+00	-6.500034e+00	2.511762e+00
3.390000e-01	-4.504172e+00	1.838735e+00	-3.987122e+00	-6.497733e+00	2.510610e+00
3.400000e-01	-4.502404e+00	1.837752e+00	-3.985902e+00	-6.495355e+00	2.509452e+00
3.410000e-01	-4.500842e+00	1.836814e+00	-3.984883e+00	-6.493284e+00	2.508401e+00
3.420000e-01	-4.499371e+00	1.835971e+00	-3.983912e+00	-6.491327e+00	2.507415e+00
3.430000e-01	-4.498228e+00	1.835192e+00	-3.983259e+00	-6.489858e+00	2.506599e+00
3.440000e-01	-4.497319e+00	1.834606e+00	-3.982740e+00	-6.488689e+00	2.505950e+00
3.450000e-01	-4.496912e+00	1.834191e+00	-3.982654e+00	-6.488239e+00	2.505585e+00
3.460000e-01	-4.496833e+00	1.834023e+00	-3.982767e+00	-6.488216e+00	2.505450e+00
3.470000e-01	-4.497276e+00	1.834061e+00	-3.983313e+00	-6.488932e+00	2.505619e+00
3.480000e-01	-4.498122e+00	1.834358e+00	-3.984132e+00	-6.490188e+00	2.506056e+00
3.490000e-01	-4.499549e+00	1.834863e+00	-3.985446e+00	-6.492272e+00	2.506826e+00
3.500000e-01	-4.501348e+00	1.835632e+00	-3.986999e+00	-6.494847e+00	2.507848e+00
3.510000e-01	-4.503709e+00	1.836586e+00	-3.989055e+00	-6.498236e+00	2.509181e+00
3.520000e-01	-4.506407e+00	1.837758e+00	-3.991335e+00	-6.502074e+00	2.510739e+00
3.530000e-01	-4.509536e+00	1.839093e+00	-3.993984e+00	-6.506528e+00	2.512544e+00
3.540000e-01	-4.512893e+00	1.840600e+00	-3.996772e+00	-6.511278e+00	2.514507e+00
3.550000e-01	-4.516588e+00	1.842192e+00	-3.999873e+00	-6.516525e+00	2.516652e+00
3.560000e-01	-4.520338e+00	1.843880e+00	-4.002962e+00	-6.521819e+00	2.518857e+00
3.570000e-01	-4.524292e+00	1.845583e+00	-4.006262e+00	-6.527423e+00	2.521161e+00
3.580000e-01	-4.528245e+00	1.847358e+00	-4.009513e+00	-6.533002e+00	2.523488e+00
3.590000e-01	-4.532336e+00	1.849149e+00	-4.012901e+00	-6.538786e+00	2.525886e+00
3.600000e-01	-4.536331e+00	1.850949e+00	-4.016175e+00	-6.544418e+00	2.528243e+00
3.610000e-01	-4.540324e+00	1.852687e+00	-4.019482e+00	-6.550065e+00	2.530583e+00
3.620000e-01	-4.544070e+00	1.854403e+00	-4.022536e+00	-6.555338e+00	2.532802e+00
3.630000e-01	-4.547759e+00	1.856010e+00	-4.025598e+00	-6.560558e+00	2.534960e+00
3.640000e-01	-4.551143e+00	1.857532e+00	-4.028377e+00	-6.565332e+00	2.536955e+00
3.650000e-01	-4.554327e+00	1.858911e+00	-4.031025e+00	-6.569840e+00	2.538815e+00