# Force coefficients
# liftDir    : (0.000000e+00 1.000000e+00 0.000000e+00)
# dragDir    : (1.000000e+00 0.000000e+00 0.000000e+00)
# pitchAxis  : (0.000000e+00 0.000000e+00 1.000000e+00)
# magUInf    : 5.148000e+01
# lRef       : 4.530000e-01
# Aref       : 4.348800e-01
# CofR       : (0.000000e+00 0.000000e+00 0.000000e+00)
# Time       	Cm           	Cd           	Cl           	Cl(f)        	Cl(r)        	Cm	Cd	Cl	Cl(f)	Cl(r)
1.000000e-03	-1.746322e-03	1.935633e-03	-2.982321e-03	-3.237483e-03	2.551611e-04
2.000000e-03	-1.125799e-02	1.285776e-02	-2.044242e-02	-2.147921e-02	1.036783e-03
3.000000e-03	-1.915040e-02	2.185962e-02	-3.638910e-02	-3.734495e-02	9.558514e-04
4.000000e-03	-2.106913e-02	2.398889e-02	-4.188139e-02	-4.200983e-02	1.284367e-04
5.000000e-03	-2.106353e-02	2.369900e-02	-4.442056e-02	-4.327381e-02	-1.146755e-03
6.000000e-03	-2.165825e-02	2.376240e-02	-4.842541e-02	-4.587096e-02	-2.554456e-03
7.000000e-03	-2.337506e-02	2.493837e-02	-5.457905e-02	-5.066459e-02	-3.914461e-03
8.000000e-03	-2.693059e-02	2.812125e-02	-6.391631e-02	-5.888875e-02	-5.027562e-03
9.000000e-03	-3.185270e-02	3.286264e-02	-7.562451e-02	-6.966496e-02	-5.959554e-03
1.000000e-02	-3.708156e-02	3.806149e-02	-8.777395e-02	-8.096854e-02	-6.805411e-03
1.100000e-02	-4.172870e-02	4.266865e-02	-9.882837e-02	-9.114289e-02	-7.685487e-03
1.200000e-02	-4.617282e-02	4.710062e-02	-1.096125e-01	-1.009791e-01	-8.633454e-03
1.300000e-02	-5.050626e-02	5.140649e-02	-1.203605e-01	-1.106865e-01	-9.673977e-03
1.400000e-02	-5.497784e-02	5.582405e-02	-1.315836e-01	-1.207696e-01	-1.081396e-02
1.500000e-02	-5.986256e-02	6.071197e-02	-1.436950e-01	-1.317101e-01	-1.198495e-02
1.600000e-02	-6.577260e-02	6.668100e-02	-1.580008e-01	-1.447730e-01	-1.322781e-02
1.700000e-02	-7.278342e-02	7.381369e-02	-1.748140e-01	-1.601904e-01	-1.462356e-02
1.800000e-02	-8.070284e-02	8.180900e-02	-1.939792e-01	-1.776924e-01	-1.628675e-02
1.900000e-02	-8.903921e-02	9.015463e-02	-2.145298e-01	-1.963041e-01	-1.822569e-02
2.000000e-02	-9.744723e-02	9.844581e-02	-2.356480e-01	-2.152712e-01	-2.037676e-02
2.100000e-02	-1.056267e-01	1.063796e-01	-2.566028e-01	-2.339282e-01	-2.267468e-02
2.200000e-02	-1.133531e-01	1.137310e-01	-2.768371e-01	-2.517716e-01	-2.506547e-02
2.300000e-02	-1.207918e-01	1.207187e-01	-2.965745e-01	-2.690791e-01	-2.749540e-02
2.400000e-02	-1.284700e-01	1.279142e-01	-3.168228e-01	-2.868814e-01	-2.994141e-02
2.500000e-02	-1.369058e-01	1.359325e-01	-3.386396e-01	-3.062256e-01	-3.241396e-02
2.600000e-02	-1.463978e-01	1.450754e-01	-3.626775e-01	-3.277365e-01	-3.494095e-02
2.700000e-02	-1.570206e-01	1.554495e-01	-3.891490e-01	-3.515951e-01	-3.755394e-02
2.800000e-02	-1.686539e-01	1.668706e-01	-4.179490e-01	-3.776284e-01	-4.032055e-02
2.900000e-02	-1.809329e-01	1.789828e-01	-4.482872e-01	-4.050765e-01	-4.321074e-02
3.000000e-02	-1.934073e-01	1.912849e-01	-4.793793e-01	-4.330969e-01	-4.628232e-02
3.100000e-02	-2.058734e-01	2.035810e-01	-5.106734e-01	-4.612100e-01	-4.946333e-02
3.200000e-02	-2.183033e-01	2.158308e-01	-5.420330e-01	-4.893198e-01	-5.271320e-02
3.300000e-02	-2.308962e-01	2.282518e-01	-5.736212e-01	-5.177067e-01	-5.591443e-02
3.400000e-02	-2.438331e-01	2.410207e-01	-6.058491e-01	-5.467576e-01	-5.909147e-02
3.500000e-02	-2.574640e-01	2.545149e-01	-6.393823e-01	-5.771551e-01	-6.222717e-02
3.600000e-02	-2.717783e-01	2.687193e-01	-6.743460e-01	-6.089512e-01	-6.539472e-02
3.700000e-02	-2.868239e-01	2.837336e-01	-7.107610e-01	-6.422043e-01	-6.855662e-02
3.800000e-02	-3.022088e-01	2.991527e-01	-7.478760e-01	-6.761468e-01	-7.172919e-02
3.900000e-02	-3.181727e-01	3.152038e-01	-7.861629e-01	-7.112541e-01	-7.490876e-02
4.000000e-02	-3.343345e-01	3.314937e-01	-8.246333e-01	-7.466512e-01	-7.798209e-02
4.100000e-02	-3.508863e-01	3.482089e-01	-8.637575e-01	-7.827651e-01	-8.099244e-02
4.200000e-02	-3.677177e-01	3.651808e-01	-9.031980e-01	-8.193167e-01	-8.388137e-02
4.300000e-02	-3.850300e-01	3.826236e-01	-9.434697e-01	-8.567648e-01	-8.670488e-02
4.400000e-02	-4.028574e-01	4.005076e-01	-9.846917e-01	-8.952032e-01	-8.948848e-02
4.500000e-02	-4.212751e-01	4.189615e-01	-1.026981e+00	-9.347657e-01	-9.221544e-02
4.600000e-02	-4.403639e-01	4.379867e-01	-1.070156e+00	-9.754417e-01	-9.471400e-02
4.700000e-02	-4.596066e-01	4.571472e-01	-1.113199e+00	-1.016206e+00	-9.699298e-02
4.800000e-02	-4.793004e-01	4.766872e-01	-1.156819e+00	-1.057710e+00	-9.910923e-02
4.900000e-02	-4.993672e-01	4.966123e-01	-1.200933e+00	-1.099834e+00	-1.010994e-01
5.000000e-02	-5.200780e-01	5.170815e-01	-1.246388e+00	-1.143272e+00	-1.031157e-01
5.100000e-02	-5.413608e-01	5.380294e-01	-1.293157e+00	-1.187939e+00	-1.052177e-01
5.200000e-02	-5.630878e-01	5.592311e-01	-1.341182e+00	-1.233679e+00	-1.075030e-01
5.300000e-02	-5.852960e-01	5.807060e-01	-1.390566e+00	-1.280579e+00	-1.099869e-01
5.400000e-02	-6.077977e-01	6.022133e-01	-1.440912e+00	-1.328254e+00	-1.126583e-01
5.500000e-02	-6.300885e-01	6.232720e-01	-1.491077e+00	-1.375627e+00	-1.154499e-01
5.600000e-02	-6.523043e-01	6.439590e-01	-1.541393e+00	-1.423001e+00	-1.183920e-01
5.700000e-02	-6.746187e-01	6.644775e-01	-1.592133e+00	-1.470685e+00	-1.214477e-01
5.800000e-02	-6.972665e-01	6.850725e-01	-1.643916e+00	-1.519224e+00	-1.246914e-01
5.900000e-02	-7.203742e-01	7.058857e-01	-1.697029e+00	-1.568889e+00	-1.281405e-01
6.000000e-02	-7.442764e-01	7.272877e-01	-1.752242e+00	-1.620398e+00	-1.318447e-01
6.100000e-02	-7.686618e-01	7.489371e-01	-1.808881e+00	-1.673102e+00	-1.357786e-01
6.200000e-02	-7.933797e-01	7.706536e-01	-1.866747e+00	-1.726753e+00	-1.399940e-01
6.300000e-02	-8.183468e-01	7.923255e-01	-1.925541e+00	-1.781117e+00	-1.444239e-01
6.400000e-02	-8.433184e-01	8.137150e-01	-1.984798e+00	-1.835717e+00	-1.490804e-01
6.500000e-02	-8.679411e-01	8.344516e-01	-2.043626e+00	-1.889754e+00	-1.538718e-01
6.600000e-02	-8.922679e-01	8.546842e-01	-2.102067e+00	-1.943301e+00	-1.587655e-01
6.700000e-02	-9.162001e-01	8.743465e-01	-2.159849e+00	-1.996124e+00	-1.637243e-01
6.800000e-02	-9.396153e-01	8.933017e-01	-2.216702e+00	-2.047966e+00	-1.687356e-01
6.900000e-02	-9.621888e-01	9.114544e-01	-2.271705e+00	-2.098041e+00	-1.736635e-01
7.000000e-02	-9.840874e-01	9.289304e-01	-2.325078e+00	-2.146626e+00	-1.784515e-01
7.100000e-02	-1.005306e+00	9.458376e-01	-2.376490e+00	-2.193551e+00	-1.829385e-01
7.200000e-02	-1.025668e+00	9.621026e-01	-2.425446e+00	-2.238391e+00	-1.870544e-01
7.300000e-02	-1.045271e+00	9.778759e-01	-2.472044e+00	-2.281293e+00	-1.907509e-01
7.400000e-02	-1.064193e+00	9.932583e-01	-2.516524e+00	-2.322455e+00	-1.940684e-01
7.500000e-02	-1.082445e+00	1.008300e+00	-2.558916e+00	-2.361903e+00	-1.970125e-01
7.600000e-02	-1.099969e+00	1.023008e+00	-2.599078e+00	-2.399508e+00	-1.995696e-01
7.700000e-02	-1.117087e+00	1.037775e+00	-2.637670e+00	-2.435922e+00	-2.017476e-01
7.800000e-02	-1.133909e+00	1.052716e+00	-2.674923e+00	-2.471371e+00	-2.035520e-01
7.900000e-02	-1.150392e+00	1.067804e+00	-2.710411e+00	-2.505597e+00	-2.048134e-01
8.000000e-02	-1.166636e+00	1.083065e+00	-2.744586e+00	-2.538930e+00	-2.056567e-01
8.100000e-02	-1.182641e+00	1.098421e+00	-2.777648e+00	-2.571465e+00	-2.061825e-01
8.200000e-02	-1.198500e+00	1.114035e+00	-2.809551e+00	-2.603276e+00	-2.062753e-01
8.300000e-02	-1.214056e+00	1.129798e+00	-2.839900e+00	-2.634006e+00	-2.058938e-01
8.400000e-02	-1.229447e+00	1.145950e+00	-2.868783e+00	-2.663839e+00	-2.049440e-01
8.500000e-02	-1.244672e+00	1.162566e+00	-2.895942e+00	-2.692643e+00	-2.032992e-01
8.600000e-02	-1.259754e+00	1.179647e+00	-2.921395e+00	-2.720451e+00	-2.009433e-01
8.700000e-02	-1.275047e+00	1.197481e+00	-2.946158e+00	-2.748126e+00	-1.980325e-01
8.800000e-02	-1.290260e+00	1.215715e+00	-2.969894e+00	-2.775207e+00	-1.946875e-01
8.900000e-02	-1.305192e+00	1.234055e+00	-2.992361e+00	-2.801372e+00	-1.909887e-01
9.000000e-02	-1.319618e+00	1.252196e+00	-3.012853e+00	-2.826045e+00	-1.868081e-01
9.100000e-02	-1.333224e+00	1.269689e+00	-3.030972e+00	-2.848710e+00	-1.822620e-01
9.200000e-02	-1.345863e+00	1.286386e+00	-3.045772e+00	-2.868749e+00	-1.770234e-01
9.300000e-02	-1.357743e+00	1.302354e+00	-3.058305e+00	-2.886895e+00	-1.714095e-01
9.400000e-02	-1.368327e+00	1.317037e+00	-3.067074e+00	-2.901864e+00	-1.652098e-01
9.500000e-02	-1.378324e+00	1.330974e+00	-3.074363e+00	-2.915505e+00	-1.588576e-01
9.600000e-02	-1.387303e+00	1.343739e+00	-3.078693e+00	-2.926649e+00	-1.520437e-01
9.700000e-02	-1.395713e+00	1.355724e+00	-3.081295e+00	-2.936361e+00	-1.449342e-01
9.800000e-02	-1.403120e+00	1.366572e+00	-3.081018e+00	-2.943629e+00	-1.373892e-01
9.900000e-02	-1.409545e+00	1.376327e+00	-3.078670e+00	-2.948880e+00	-1.297902e-01
1.000000e-01	-1.414843e+00	1.384832e+00	-3.074433e+00	-2.952060e+00	-1.223734e-01
1.010000e-01	-1.418756e+00	1.391848e+00	-3.068357e+00	-2.952934e+00	-1.154229e-01
1.020000e-01	-1.421242e+00	1.397353e+00	-3.060238e+00	-2.951361e+00	-1.088763e-01
1.030000e-01	-1.422046e+00	1.401055e+00	-3.049747e+00	-2.946919e+00	-1.028281e-01
1.040000e-01	-1.421543e+00	1.403283e+00	-3.037572e+00	-2.940329e+00	-9.724310e-02
1.050000e-01	-1.420020e+00	1.404324e+00	-3.024130e+00	-2.932085e+00	-9.204478e-02
1.060000e-01	-1.418232e+00	1.404896e+00	-3.010953e+00	-2.923709e+00	-8.724393e-02
1.070000e-01	-1.416338e+00	1.405004e+00	-2.999369e+00	-2.916022e+00	-8.334685e-02
1.080000e-01	-1.413887e+00	1.404131e+00	-2.988974e+00	-2.908374e+00	-8.060027e-02
1.090000e-01	-1.410148e+00	1.401458e+00	-2.978832e+00	-2.899564e+00	-7.926845e-02
1.100000e-01	-1.406179e+00	1.398114e+00	-2.970267e+00	-2.891313e+00	-7.895418e-02
1.110000e-01	-1.402524e+00	1.394695e+00	-2.964100e+00	-2.884574e+00	-7.952599e-02
1.120000e-01	-1.399478e+00	1.391594e+00	-2.960473e+00	-2.879715e+00	-8.075892e-02
1.130000e-01	-1.398671e+00	1.390367e+00	-2.962739e+00	-2.880040e+00	-8.269823e-02
1.140000e-01	-1.399517e+00	1.390518e+00	-2.969437e+00	-2.884236e+00	-8.520114e-02
1.150000e-01	-1.401270e+00	1.391132e+00	-2.979788e+00	-2.891164e+00	-8.862441e-02
1.160000e-01	-1.402774e+00	1.391024e+00	-2.991517e+00	-2.898532e+00	-9.298474e-02
1.170000e-01	-1.404671e+00	1.390872e+00	-3.005543e+00	-2.907442e+00	-9.810037e-02
1.180000e-01	-1.407488e+00	1.391312e+00	-3.022332e+00	-2.918654e+00	-1.036779e-01
1.190000e-01	-1.411972e+00	1.393109e+00	-3.043144e+00	-2.933544e+00	-1.095997e-01
1.200000e-01	-1.417787e+00	1.396015e+00	-3.066713e+00	-2.951143e+00	-1.155697e-01
1.210000e-01	-1.425377e+00	1.400568e+00	-3.093350e+00	-2.972052e+00	-1.212975e-01
1.220000e-01	-1.434668e+00	1.406766e+00	-3.122537e+00	-2.995936e+00	-1.266011e-01
1.230000e-01	-1.445949e+00	1.415015e+00	-3.154438e+00	-3.023168e+00	-1.312703e-01
1.240000e-01	-1.458903e+00	1.425137e+00	-3.188337e+00	-3.053071e+00	-1.352653e-01
1.250000e-01	-1.472942e+00	1.436626e+00	-3.223047e+00	-3.084466e+00	-1.385817e-01
1.260000e-01	-1.488146e+00	1.449581e+00	-3.259086e+00	-3.117689e+00	-1.413977e-01
1.270000e-01	-1.502817e+00	1.462312e+00	-3.293751e+00	-3.149693e+00	-1.440584e-01
1.280000e-01	-1.514697e+00	1.472471e+00	-3.323185e+00	-3.176289e+00	-1.468956e-01
1.290000e-01	-1.522595e+00	1.478776e+00	-3.345196e+00	-3.195193e+00	-1.500031e-01
1.300000e-01	-1.527041e+00	1.481702e+00	-3.360401e+00	-3.207242e+00	-1.531593e-01
1.310000e-01	-1.529047e+00	1.482220e+00	-3.370232e+00	-3.214163e+00	-1.560695e-01
1.320000e-01	-1.530796e+00	1.482483e+00	-3.378351e+00	-3.219971e+00	-1.583795e-01
1.330000e-01	-1.534088e+00	1.484318e+00	-3.387828e+00	-3.228001e+00	-1.598263e-01
1.340000e-01	-1.539620e+00	1.488596e+00	-3.399528e+00	-3.239384e+00	-1.601439e-01
1.350000e-01	-1.547792e+00	1.495853e+00	-3.413842e+00	-3.254713e+00	-1.591289e-01
1.360000e-01	-1.558152e+00	1.505762e+00	-3.429696e+00	-3.273000e+00	-1.566964e-01
1.370000e-01	-1.569437e+00	1.516956e+00	-3.445432e+00	-3.292153e+00	-1.532790e-01
1.380000e-01	-1.580637e+00	1.528411e+00	-3.459550e+00	-3.310412e+00	-1.491376e-01
1.390000e-01	-1.589997e+00	1.538285e+00	-3.469078e+00	-3.324536e+00	-1.445425e-01
1.400000e-01	-1.596980e+00	1.546082e+00	-3.473064e+00	-3.333512e+00	-1.395523e-01
1.410000e-01	-1.602185e+00	1.552277e+00	-3.473570e+00	-3.338970e+00	-1.345998e-01
1.420000e-01	-1.606310e+00	1.557547e+00	-3.472105e+00	-3.342362e+00	-1.297426e-01
1.430000e-01	-1.610045e+00	1.562527e+00	-3.470547e+00	-3.345318e+00	-1.252285e-01
1.440000e-01	-1.613108e+00	1.566840e+00	-3.468323e+00	-3.347270e+00	-1.210532e-01
1.450000e-01	-1.615080e+00	1.569991e+00	-3.464814e+00	-3.347487e+00	-1.173272e-01
1.460000e-01	-1.615244e+00	1.571161e+00	-3.459129e+00	-3.344809e+00	-1.143203e-01
1.470000e-01	-1.613875e+00	1.570660e+00	-3.451761e+00	-3.339756e+00	-1.120053e-01
1.480000e-01	-1.611119e+00	1.568768e+00	-3.442618e+00	-3.332428e+00	-1.101906e-01
1.490000e-01	-1.608093e+00	1.566732e+00	-3.433500e+00	-3.324844e+00	-1.086566e-01
1.500000e-01	-1.605494e+00	1.565280e+00	-3.425447e+00	-3.318217e+00	-1.072292e-01
1.510000e-01	-1.603256e+00	1.564229e+00	-3.418356e+00	-3.312434e+00	-1.059220e-01
1.520000e-01	-1.601687e+00	1.563781e+00	-3.412759e+00	-3.308066e+00	-1.046925e-01
1.530000e-01	-1.600290e+00	1.563115e+00	-3.408543e+00	-3.304561e+00	-1.039821e-01
1.540000e-01	-1.597958e+00	1.561006e+00	-3.404067e+00	-3.299991e+00	-1.040753e-01
1.550000e-01	-1.594920e+00	1.557717e+00	-3.399835e+00	-3.294837e+00	-1.049979e-01
1.560000e-01	-1.591688e+00	1.553959e+00	-3.396144e+00	-3.289760e+00	-1.063840e-01
1.570000e-01	-1.589136e+00	1.550818e+00	-3.393814e+00	-3.286044e+00	-1.077707e-01
1.580000e-01	-1.588278e+00	1.549456e+00	-3.394165e+00	-3.285360e+00	-1.088047e-01
1.590000e-01	-1.588908e+00	1.549683e+00	-3.396656e+00	-3.287237e+00	-1.094196e-01
1.600000e-01	-1.590529e+00	1.550997e+00	-3.400305e+00	-3.290681e+00	-1.096237e-01
1.610000e-01	-1.592799e+00	1.553046e+00	-3.404445e+00	-3.295022e+00	-1.094229e-01
1.620000e-01	-1.594595e+00	1.554799e+00	-3.406724e+00	-3.297957e+00	-1.087674e-01
1.630000e-01	-1.594738e+00	1.555173e+00	-3.404940e+00	-3.297208e+00	-1.077321e-01
1.640000e-01	-1.592572e+00	1.553474e+00	-3.398362e+00	-3.291753e+00	-1.066090e-01
1.650000e-01	-1.588682e+00	1.550211e+00	-3.388442e+00	-3.282903e+00	-1.055384e-01
1.660000e-01	-1.583485e+00	1.545769e+00	-3.376014e+00	-3.271492e+00	-1.045221e-01
1.670000e-01	-1.577866e+00	1.540970e+00	-3.362750e+00	-3.259241e+00	-1.035091e-01
1.680000e-01	-1.572616e+00	1.536667e+00	-3.349931e+00	-3.247581e+00	-1.023497e-01
1.690000e-01	-1.567899e+00	1.533038e+00	-3.337933e+00	-3.236865e+00	-1.010679e-01
1.700000e-01	-1.563488e+00	1.529848e+00	-3.326584e+00	-3.226780e+00	-9.980419e-02
1.710000e-01	-1.558174e+00	1.525763e+00	-3.314176e+00	-3.215262e+00	-9.891430e-02
1.720000e-01	-1.552036e+00	1.520702e+00	-3.301329e+00	-3.202701e+00	-9.862830e-02
1.730000e-01	-1.545854e+00	1.515478e+00	-3.289173e+00	-3.190440e+00	-9.873279e-02
1.740000e-01	-1.540991e+00	1.511429e+00	-3.280157e+00	-3.181069e+00	-9.908721e-02
1.750000e-01	-1.537969e+00	1.509082e+00	-3.275105e+00	-3.175522e+00	-9.958343e-02
1.760000e-01	-1.536430e+00	1.508050e+00	-3.273286e+00	-3.173073e+00	-1.002128e-01
1.770000e-01	-1.535629e+00	1.507581e+00	-3.273252e+00	-3.172255e+00	-1.009974e-01
1.780000e-01	-1.535181e+00	1.507343e+00	-3.273966e+00	-3.172164e+00	-1.018025e-01
1.790000e-01	-1.534852e+00	1.507199e+00	-3.274599e+00	-3.172151e+00	-1.024477e-01
1.800000e-01	-1.534747e+00	1.507308e+00	-3.275146e+00	-3.172320e+00	-1.028257e-01
1.810000e-01	-1.535115e+00	1.507910e+00	-3.276062e+00	-3.173147e+00	-1.029156e-01
1.820000e-01	-1.536255e+00	1.509318e+00	-3.277955e+00	-3.175233e+00	-1.027228e-01
1.830000e-01	-1.538238e+00	1.511620e+00	-3.281055e+00	-3.178765e+00	-1.022893e-01
1.840000e-01	-1.540349e+00	1.514083e+00	-3.284188e+00	-3.182443e+00	-1.017447e-01
1.850000e-01	-1.542182e+00	1.516214e+00	-3.286937e+00	-3.185651e+00	-1.012867e-01
1.860000e-01	-1.543438e+00	1.517669e+00	-3.288830e+00	-3.187854e+00	-1.009768e-01
1.870000e-01	-1.544035e+00	1.518274e+00	-3.289914e+00	-3.188992e+00	-1.009221e-01
1.880000e-01	-1.544252e+00	1.518364e+00	-3.290451e+00	-3.189477e+00	-1.009733e-01
1.890000e-01	-1.544459e+00	1.518315e+00	-3.291116e+00	-3.190017e+00	-1.010991e-01
1.900000e-01	-1.544648e+00	1.518182e+00	-3.291728e+00	-3.190512e+00	-1.012161e-01
1.910000e-01	-1.544988e+00	1.518152e+00	-3.292635e+00	-3.191306e+00	-1.013292e-01
1.920000e-01	-1.545698e+00	1.518463e+00	-3.294221e+00	-3.192808e+00	-1.014128e-01
1.930000e-01	-1.546977e+00	1.519332e+00	-3.296920e+00	-3.195437e+00	-1.014831e-01
1.940000e-01	-1.548909e+00	1.520872e+00	-3.300816e+00	-3.199317e+00	-1.014989e-01
1.950000e-01	-1.551569e+00	1.523176e+00	-3.306096e+00	-3.204617e+00	-1.014787e-01
1.960000e-01	-1.555003e+00	1.526310e+00	-3.312763e+00	-3.211384e+00	-1.013785e-01
1.970000e-01	-1.559065e+00	1.530142e+00	-3.320610e+00	-3.219370e+00	-1.012398e-01
1.980000e-01	-1.563762e+00	1.534611e+00	-3.329745e+00	-3.228634e+00	-1.011107e-01
1.990000e-01	-1.568923e+00	1.539516e+00	-3.339982e+00	-3.238914e+00	-1.010679e-01
2.000000e-01	-1.574430e+00	1.544666e+00	-3.351226e+00	-3.250043e+00	-1.011825e-01
2.010000e-01	-1.579847e+00	1.549658e+00	-3.362699e+00	-3.261196e+00	-1.015025e-01
2.020000e-01	-1.584794e+00	1.554241e+00	-3.373452e+00	-3.271520e+00	-1.019320e-01
2.030000e-01	-1.589185e+00	1.558453e+00	-3.383069e+00	-3.280720e+00	-1.023490e-01
2.040000e-01	-1.593209e+00	1.562568e+00	-3.391590e+00	-3.289004e+00	-1.025863e-01
2.050000e-01	-1.596884e+00	1.566629e+00	-3.399031e+00	-3.296399e+00	-1.026317e-01
2.060000e-01	-1.600090e+00	1.570485e+00	-3.405248e+00	-3.302714e+00	-1.025339e-01
2.070000e-01	-1.602464e+00	1.573617e+00	-3.410008e+00	-3.307468e+00	-1.025403e-01
2.080000e-01	-1.603482e+00	1.575363e+00	-3.412617e+00	-3.309791e+00	-1.028265e-01
2.090000e-01	-1.603000e+00	1.575539e+00	-3.412826e+00	-3.309412e+00	-1.034130e-01
2.100000e-01	-1.601249e+00	1.574412e+00	-3.410746e+00	-3.306621e+00	-1.041244e-01
2.110000e-01	-1.598789e+00	1.572601e+00	-3.407096e+00	-3.302337e+00	-1.047586e-01
2.120000e-01	-1.596120e+00	1.570690e+00	-3.402412e+00	-3.297325e+00	-1.050862e-01
2.130000e-01	-1.593472e+00	1.568959e+00	-3.397032e+00	-3.291988e+00	-1.050440e-01
2.140000e-01	-1.590888e+00	1.567467e+00	-3.391060e+00	-3.286418e+00	-1.046427e-01
2.150000e-01	-1.588338e+00	1.566127e+00	-3.384820e+00	-3.280748e+00	-1.040723e-01
2.160000e-01	-1.585744e+00	1.564778e+00	-3.378491e+00	-3.274990e+00	-1.035010e-01
2.170000e-01	-1.583184e+00	1.563415e+00	-3.372556e+00	-3.269463e+00	-1.030936e-01
2.180000e-01	-1.580769e+00	1.562073e+00	-3.367338e+00	-3.264438e+00	-1.029002e-01
2.190000e-01	-1.578558e+00	1.560755e+00	-3.363066e+00	-3.260091e+00	-1.029748e-01
2.200000e-01	-1.576737e+00	1.559630e+00	-3.359943e+00	-3.256708e+00	-1.032349e-01
2.210000e-01	-1.575382e+00	1.558780e+00	-3.358084e+00	-3.254424e+00	-1.036602e-01
2.220000e-01	-1.574577e+00	1.558316e+00	-3.357511e+00	-3.253332e+00	-1.041787e-01
2.230000e-01	-1.574179e+00	1.558068e+00	-3.358095e+00	-3.253227e+00	-1.048682e-01
2.240000e-01	-1.574165e+00	1.557973e+00	-3.359870e+00	-3.254100e+00	-1.057695e-01
2.250000e-01	-1.574682e+00	1.558120e+00	-3.363277e+00	-3.256320e+00	-1.069571e-01
2.260000e-01	-1.575920e+00	1.558668e+00	-3.368673e+00	-3.260256e+00	-1.084167e-01
2.270000e-01	-1.578394e+00	1.560136e+00	-3.376963e+00	-3.266876e+00	-1.100876e-01
2.280000e-01	-1.582303e+00	1.562739e+00	-3.388388e+00	-3.276498e+00	-1.118909e-01
2.290000e-01	-1.587709e+00	1.566550e+00	-3.403080e+00	-3.289249e+00	-1.138311e-01
2.300000e-01	-1.594398e+00	1.571392e+00	-3.420567e+00	-3.304681e+00	-1.158856e-01
2.310000e-01	-1.602137e+00	1.577062e+00	-3.440452e+00	-3.322363e+00	-1.180890e-01
2.320000e-01	-1.610730e+00	1.583417e+00	-3.462263e+00	-3.341861e+00	-1.204013e-01
2.330000e-01	-1.619991e+00	1.590290e+00	-3.485680e+00	-3.362831e+00	-1.228494e-01
2.340000e-01	-1.629604e+00	1.597406e+00	-3.510020e+00	-3.384614e+00	-1.254064e-01
2.350000e-01	-1.639283e+00	1.604522e+00	-3.534695e+00	-3.406630e+00	-1.280648e-01
2.360000e-01	-1.648939e+00	1.611641e+00	-3.559233e+00	-3.428556e+00	-1.306772e-01
2.370000e-01	-1.658413e+00	1.618687e+00	-3.583158e+00	-3.449992e+00	-1.331655e-01
2.380000e-01	-1.667486e+00	1.625553e+00	-3.605773e+00	-3.470372e+00	-1.354005e-01
2.390000e-01	-1.675935e+00	1.632063e+00	-3.626618e+00	-3.489244e+00	-1.373742e-01
2.400000e-01	-1.683483e+00	1.637976e+00	-3.645111e+00	-3.506038e+00	-1.390726e-01
2.410000e-01	-1.689927e+00	1.643070e+00	-3.660974e+00	-3.520414e+00	-1.405604e-01
2.420000e-01	-1.695175e+00	1.647262e+00	-3.673996e+00	-3.532173e+00	-1.418233e-01
2.430000e-01	-1.699333e+00	1.650658e+00	-3.684390e+00	-3.541528e+00	-1.428620e-01
2.440000e-01	-1.702603e+00	1.653484e+00	-3.692425e+00	-3.548815e+00	-1.436100e-01
2.450000e-01	-1.705006e+00	1.655719e+00	-3.698296e+00	-3.554154e+00	-1.441418e-01
2.460000e-01	-1.706437e+00	1.657214e+00	-3.701907e+00	-3.557390e+00	-1.445164e-01
2.470000e-01	-1.706853e+00	1.657880e+00	-3.703361e+00	-3.558534e+00	-1.448273e-01
2.480000e-01	-1.706302e+00	1.657742e+00	-3.702723e+00	-3.557663e+00	-1.450596e-01
2.490000e-01	-1.704949e+00	1.656934e+00	-3.700387e+00	-3.555142e+00	-1.452448e-01
2.500000e-01	-1.703030e+00	1.655680e+00	-3.696727e+00	-3.551394e+00	-1.453339e-01
2.510000e-01	-1.700755e+00	1.654152e+00	-3.692228e+00	-3.546868e+00	-1.453592e-01
2.520000e-01	-1.698297e+00	1.652499e+00	-3.687203e+00	-3.541899e+00	-1.453049e-01
2.530000e-01	-1.695887e+00	1.650901e+00	-3.682232e+00	-3.537003e+00	-1.452287e-01
2.540000e-01	-1.693693e+00	1.649477e+00	-3.677675e+00	-3.532530e+00	-1.451446e-01
2.550000e-01	-1.691789e+00	1.648222e+00	-3.673891e+00	-3.528734e+00	-1.451569e-01
2.560000e-01	-1.690366e+00	1.647282e+00	-3.671233e+00	-3.525982e+00	-1.452510e-01
2.570000e-01	-1.689480e+00	1.646659e+00	-3.669941e+00	-3.524451e+00	-1.454907e-01
2.580000e-01	-1.689347e+00	1.646563e+00	-3.670296e+00	-3.524495e+00	-1.458013e-01
2.590000e-01	-1.690064e+00	1.647077e+00	-3.672532e+00	-3.526330e+00	-1.462015e-01
2.600000e-01	-1.691728e+00	1.648305e+00	-3.676722e+00	-3.530089e+00	-1.466331e-01
2.610000e-01	-1.694375e+00	1.650290e+00	-3.682997e+00	-3.535874e+00	-1.471238e-01
2.620000e-01	-1.697984e+00	1.653044e+00	-3.691192e+00	-3.543580e+00	-1.476119e-01
2.630000e-01	-1.702443e+00	1.656441e+00	-3.701167e+00	-3.553026e+00	-1.481405e-01
2.640000e-01	-1.707580e+00	1.660405e+00	-3.712430e+00	-3.563795e+00	-1.486355e-01
2.650000e-01	-1.713248e+00	1.664842e+00	-3.724696e+00	-3.575596e+00	-1.491001e-01
2.660000e-01	-1.719312e+00	1.669682e+00	-3.737531e+00	-3.588077e+00	-1.494533e-01
2.670000e-01	-1.725607e+00	1.674789e+00	-3.750645e+00	-3.600930e+00	-1.497154e-01
2.680000e-01	-1.731923e+00	1.679995e+00	-3.763543e+00	-3.613695e+00	-1.498486e-01
2.690000e-01	-1.738060e+00	1.685122e+00	-3.775908e+00	-3.626014e+00	-1.498934e-01
2.700000e-01	-1.743736e+00	1.689935e+00	-3.787113e+00	-3.637293e+00	-1.498201e-01
2.710000e-01	-1.748725e+00	1.694242e+00	-3.796752e+00	-3.647100e+00	-1.496512e-01
2.720000e-01	-1.752977e+00	1.698043e+00	-3.804578e+00	-3.655266e+00	-1.493126e-01
2.730000e-01	-1.756374e+00	1.701235e+00	-3.810421e+00	-3.661584e+00	-1.488370e-01
2.740000e-01	-1.758865e+00	1.703775e+00	-3.814141e+00	-3.665936e+00	-1.482057e-01
2.750000e-01	-1.760288e+00	1.705477e+00	-3.815597e+00	-3.668086e+00	-1.475110e-01
2.760000e-01	-1.760618e+00	1.706300e+00	-3.814760e+00	-3.667998e+00	-1.467620e-01
2.770000e-01	-1.759866e+00	1.706223e+00	-3.811760e+00	-3.665746e+00	-1.460137e-01
2.780000e-01	-1.758201e+00	1.705397e+00	-3.806882e+00	-3.661642e+00	-1.452394e-01
2.790000e-01	-1.755747e+00	1.703906e+00	-3.800454e+00	-3.655974e+00	-1.444796e-01
2.800000e-01	-1.752640e+00	1.701854e+00	-3.792723e+00	-3.649001e+00	-1.437216e-01
2.810000e-01	-1.749051e+00	1.699377e+00	-3.784114e+00	-3.641108e+00	-1.430056e-01
2.820000e-01	-1.745192e+00	1.696664e+00	-3.774980e+00	-3.632682e+00	-1.422982e-01
2.830000e-01	-1.741243e+00	1.693858e+00	-3.765767e+00	-3.624126e+00	-1.416408e-01
2.840000e-01	-1.737325e+00	1.691059e+00	-3.756678e+00	-3.615664e+00	-1.410136e-01
2.850000e-01	-1.733600e+00	1.688388e+00	-3.748128e+00	-3.607664e+00	-1.404638e-01
2.860000e-01	-1.730126e+00	1.685863e+00	-3.740235e+00	-3.600244e+00	-1.399911e-01
2.870000e-01	-1.726960e+00	1.683505e+00	-3.733226e+00	-3.593573e+00	-1.396532e-01
2.880000e-01	-1.724183e+00	1.681379e+00	-3.727199e+00	-3.587783e+00	-1.394161e-01
2.890000e-01	-1.721951e+00	1.679617e+00	-3.722497e+00	-3.583199e+00	-1.392977e-01
2.900000e-01	-1.720365e+00	1.678319e+00	-3.719243e+00	-3.579987e+00	-1.392562e-01
2.910000e-01	-1.719487e+00	1.677536e+00	-3.717601e+00	-3.578287e+00	-1.393136e-01
2.920000e-01	-1.719344e+00	1.677309e+00	-3.717533e+00	-3.578111e+00	-1.394220e-01
2.930000e-01	-1.719926e+00	1.677637e+00	-3.719045e+00	-3.579448e+00	-1.395971e-01
2.940000e-01	-1.721153e+00	1.678465e+00	-3.721899e+00	-3.582103e+00	-1.397963e-01
2.950000e-01	-1.722940e+00	1.679732e+00	-3.725955e+00	-3.585917e+00	-1.400374e-01
2.960000e-01	-1.725183e+00	1.681349e+00	-3.730928e+00	-3.590647e+00	-1.402809e-01
2.970000e-01	-1.727811e+00	1.683293e+00	-3.736707e+00	-3.596165e+00	-1.405423e-01
2.980000e-01	-1.730782e+00	1.685556e+00	-3.743102e+00	-3.602333e+00	-1.407686e-01
2.990000e-01	-1.733968e+00	1.688023e+00	-3.749926e+00	-3.608932e+00	-1.409946e-01
3.000000e-01	-1.737216e+00	1.690567e+00	-3.756794e+00	-3.615613e+00	-1.411810e-01
3.010000e-01	-1.740362e+00	1.693043e+00	-3.763438e+00	-3.622081e+00	-1.413572e-01
3.020000e-01	-1.743265e+00	1.695343e+00	-3.769491e+00	-3.628010e+00	-1.414804e-01
3.030000e-01	-1.745800e+00	1.697368e+00	-3.774738e+00	-3.633169e+00	-1.415689e-01
3.040000e-01	-1.747880e+00	1.699058e+00	-3.778921e+00	-3.637340e+00	-1.415805e-01
3.050000e-01	-1.749481e+00	1.700395e+00	-3.782042e+00	-3.640502e+00	-1.415400e-01
3.060000e-01	-1.750589e+00	1.701387e+00	-3.784006e+00	-3.642591e+00	-1.414141e-01
3.070000e-01	-1.751209e+00	1.702018e+00	-3.784893e+00	-3.643656e+00	-1.412370e-01
3.080000e-01	-1.751297e+00	1.702262e+00	-3.784585e+00	-3.643589e+00	-1.409959e-01
3.090000e-01	-1.750839e+00	1.702076e+00	-3.783151e+00	-3.642414e+00	-1.407368e-01
3.100000e-01	-1.749814e+00	1.701432e+00	-3.780544e+00	-3.640086e+00	-1.404573e-01
3.110000e-01	-1.748276e+00	1.700357e+00	-3.776941e+00	-3.636747e+00	-1.401942e-01
3.120000e-01	-1.746282e+00	1.698901e+00	-3.772408e+00	-3.632486e+00	-1.399220e-01
3.130000e-01	-1.743966e+00	1.697170e+00	-3.767264e+00	-3.627598e+00	-1.396657e-01
3.140000e-01	-1.741453e+00	1.695276e+00	-3.761700e+00	-3.622303e+00	-1.393975e-01
3.150000e-01	-1.738868e+00	1.693321e+00	-3.756038e+00	-3.616887e+00	-1.391505e-01
3.160000e-01	-1.736305e+00	1.691390e+00	-3.750413e+00	-3.611512e+00	-1.389013e-01
3.170000e-01	-1.733821e+00	1.689509e+00	-3.745024e+00	-3.606333e+00	-1.386912e-01
3.180000e-01	-1.731470e+00	1.687720e+00	-3.739969e+00	-3.601454e+00	-1.385144e-01
3.190000e-01	-1.729288e+00	1.686025e+00	-3.735409e+00	-3.596992e+00	-1.384163e-01
3.200000e-01	-1.727341e+00	1.684480e+00	-3.731430e+00	-3.593056e+00	-1.383743e-01
3.210000e-01	-1.725695e+00	1.683128e+00	-3.728213e+00	-3.589801e+00	-1.384118e-01
3.220000e-01	-1.724406e+00	1.682023e+00	-3.725805e+00	-3.587309e+00	-1.384968e-01
3.230000e-01	-1.723547e+00	1.681232e+00	-3.724392e+00	-3.585744e+00	-1.386488e-01
3.240000e-01	-1.723151e+00	1.680792e+00	-3.723958e+00	-3.585131e+00	-1.388279e-01
3.250000e-01	-1.723241e+00	1.680720e+00	-3.724604e+00	-3.585543e+00	-1.390610e-01
3.260000e-01	-1.723797e+00	1.681015e+00	-3.726202e+00	-3.586898e+00	-1.393038e-01
3.270000e-01	-1.724796e+00	1.681656e+00	-3.728759e+00	-3.589175e+00	-1.395837e-01
3.280000e-01	-1.726160e+00	1.682585e+00	-3.732054e+00	-3.592187e+00	-1.398665e-01
3.290000e-01	-1.727847e+00	1.683769e+00	-3.736044e+00	-3.595869e+00	-1.401756e-01
3.300000e-01	-1.729790e+00	1.685151e+00	-3.740531e+00	-3.600056e+00	-1.404750e-01
3.310000e-01	-1.731932e+00	1.686710e+00	-3.745409e+00	-3.604636e+00	-1.407722e-01
3.320000e-01	-1.734197e+00	1.688393e+00	-3.750454e+00	-3.609424e+00	-1.410299e-01
3.330000e-01	-1.736511e+00	1.690143e+00	-3.755565e+00	-3.614294e+00	-1.412719e-01
3.340000e-01	-1.738774e+00	1.691880e+00	-3.760478e+00	-3.619013e+00	-1.414649e-01
3.350000e-01	-1.740903e+00	1.693533e+00	-3.765079e+00	-3.623443e+00	-1.416364e-01
3.360000e-01	-1.742806e+00	1.695025e+00	-3.769118e+00	-3.627365e+00	-1.417528e-01
3.370000e-01	-1.744437e+00	1.696320e+00	-3.772555e+00	-3.630714e+00	-1.418404e-01
3.380000e-01	-1.745756e+00	1.697390e+00	-3.775238e+00	-3.633374e+00	-1.418634e-01
3.390000e-01	-1.746735e+00	1.698221e+00	-3.777169e+00	-3.635319e+00	-1.418498e-01
3.400000e-01	-1.747360e+00	1.698795e+00	-3.778262e+00	-3.636491e+00	-1.417713e-01
3.410000e-01	-1.747621e+00	1.699100e+00	-3.778567e+00	-3.636905e+00	-1.416624e-01
3.420000e-01	-1.747523e+00	1.699138e+00	-3.778055e+00	-3.636550e+00	-1.415048e-01
3.430000e-01	-1.747069e+00	1.698903e+00	-3.776813e+00	-3.635476e+00	-1.413377e-01
3.440000e-01	-1.746262e+00	1.698387e+00	-3.774803e+00	-3.633664e+00	-1.411393e-01
3.450000e-01	-1.745149e+00	1.697620e+00	-3.772210e+00	-3.631254e+00	-1.409557e-01
3.460000e-01	-1.743770e+00	1.696631e+00	-3.769048e+00	-3.628295e+00	-1.407538e-01
3.470000e-01	-1.742221e+00	1.695503e+00	-3.765578e+00	-3.625010e+00	-1.405676e-01
3.480000e-01	-1.740564e+00	1.694279e+00	-3.761883e+00	-3.621506e+00	-1.403772e-01
3.490000e-01	-1.738872e+00	1.693019e+00	-3.758163e+00	-3.617953e+00	-1.402098e-01
3.500000e-01	-1.737187e+00	1.691753e+00	-3.754460e+00	-3.614417e+00	-1.400427e-01
3.510000e-01	-1.735567e+00	1.690524e+00	-3.750973e+00	-3.611054e+00	-1.399193e-01
3.520000e-01	-1.734031e+00	1.689335e+00	-3.747692e+00	-3.607877e+00	-1.398154e-01
3.530000e-01	-1.732663e+00	1.688259e+00	-3.744861e+00	-3.605093e+00	-1.397681e-01
3.540000e-01	-1.731488e+00	1.687310e+00	-3.742471e+00	-3.602724e+00	-1.397471e-01
3.550000e-01	-1.730593e+00	1.686569e+00	-3.740725e+00	-3.600955e+00	-1.397698e-01
3.560000e-01	-1.729973e+00	1.686027e+00	-3.739569e+00	-3.599758e+00	-1.398115e-01
3.570000e-01	-1.729676e+00	1.685729e+00	-3.739151e+00	-3.599251e+00	-1.398998e-01
3.580000e-01	-1.729674e+00	1.685648e+00	-3.739353e+00	-3.599351e+00	-1.400020e-01
3.590000e-01	-1.729994e+00	1.685819e+00	-3.740260e+00	-3.600124e+00	-1.401357e-01
3.600000e-01	-1.730592e+00	1.686198e+00	-3.741745e+00	-3.601464e+00	-1.402812e-01